LAMMPS (29 Aug 2024)
  using 1 OpenMP thread(s) per MPI task
Loaded 1 plugins from /home/samuel.del-fre/.conda/envs/deepmd/lib/deepmd_lmp
# Initialization
units           metal
atom_style      atomic
boundary        p p p
read_data       lmp_geo.txt
Reading data file ...
  triclinic box = (0 0 0) to (9.865464 8.543742 26.727274) with tilt (-4.932733 0 0)
WARNING: Triclinic box skew is large. LAMMPS will run inefficiently. (src/domain.cpp:221)
  1 by 1 by 4 MPI processor grid
  reading atoms ...
  98 atoms
  reading velocities ...
  98 velocities
  read_data CPU = 0.024 seconds

# Atoms
mass 1 14.0067
mass 2 15.999
mass 3 12.011


# Define interatomic potential
pair_style      deepmd graph.pb
Summary of lammps deepmd module ...
  >>> Info of deepmd-kit:
  installed to:       /home/samuel.del-fre/.conda/envs/deepmd
  source:             
  source branch:      HEAD
  source commit:      8b3dc08
  source commit at:   2025-06-11 13:00:46 +0200
  support model ver.: 1.1 
  build variant:      cpu
  build with tf inc:  /home/samuel.del-fre/.conda/envs/deepmd/lib/python3.12/site-packages/tensorflow/include;/home/samuel.del-fre/.conda/envs/deepmd/lib/python3.12/site-packages/tensorflow/../../../../include
  build with tf lib:  /home/samuel.del-fre/.conda/envs/deepmd/lib/python3.12/site-packages/tensorflow/libtensorflow_cc.so.2
  build with pt lib:  torch;torch_library;/home/samuel.del-fre/.conda/envs/deepmd/lib/python3.12/site-packages/torch/lib/libc10.so
  set tf intra_op_parallelism_threads: 4
  set tf inter_op_parallelism_threads: 1
  >>> Info of lammps module:
  use deepmd-kit at:  /home/samuel.del-fre/.conda/envs/deepmdpair_coeff      * *

# Settings
neighbor        2.0 bin
neigh_modify    delay 0 every 1 check yes

# Define compute
#compute         myTemp all temp

# Initialize velocities

# Group definitions
group           first_layer id 3:34        # Define the first layer of atoms to remain immobilized
32 atoms in group first_layer
group           third_layer id 67:98       # Define the third layer of atoms for monitoring z-height
32 atoms in group third_layer
group           mobile_layers subtract all first_layer  # Define the mobile atoms by excluding the first layer
66 atoms in group mobile_layers
group           NO_mol id 1 2              # Define the NO molecule (atoms 1 and 2)
2 atoms in group NO_mol

# Temperature of the System
compute         mobileTemp mobile_layers temp  # Compute temperature for mobile atoms only

# Calculate z-coordinates for specific groups
compute         NO_z_avg NO_mol reduce ave z             # Average z-coordinate of the NO molecule
compute         HOPG_z_avg third_layer reduce ave z      # Average z-coordinate of the third layer

# Short run to initialize computes
run             0                                       # Perform a 0-step run to initialize computes

CITE-CITE-CITE-CITE-CITE-CITE-CITE-CITE-CITE-CITE-CITE-CITE-CITE

Your simulation uses code contributions which should be cited:

- Type Label Framework: https://doi.org/10.1021/acs.jpcb.3c08419

@Article{Gissinger24,
 author = {Jacob R. Gissinger, Ilia Nikiforov, Yaser Afshar, Brendon Waters, Moon-ki Choi, Daniel S. Karls, Alexander Stukowski, Wonpil Im, Hendrik Heinz, Axel Kohlmeyer, and Ellad B. Tadmor},
 title = {Type Label Framework for Bonded Force Fields in LAMMPS},
 journal = {J. Phys. Chem. B},
 year =    2024,
 volume =  128,
 number =  13,
 pages =   {3282–-3297}
}

- USER-DEEPMD package:

@article{Wang_ComputPhysCommun_2018_v228_p178,
  author = {Wang, Han and Zhang, Linfeng and Han, Jiequn and E, Weinan},
  doi = {10.1016/j.cpc.2018.03.016},
  url = {https://doi.org/10.1016/j.cpc.2018.03.016},
  year = 2018,
  month = {jul},
  publisher = {Elsevier {BV}},
  volume = 228,
  journal = {Comput. Phys. Commun.},
  title = {{DeePMD-kit: A deep learning package for many-body potential energy representation and molecular dynamics}},
  pages = {178--184}
}
@article{Zeng_JChemPhys_2023_v159_p054801,
  title  = {{DeePMD-kit v2: A software package for deep potential models}},
  author =   {Jinzhe Zeng and Duo Zhang and Denghui Lu and Pinghui Mo and Zeyu Li
         and Yixiao Chen and Mari{\'a}n Rynik and Li'ang Huang and Ziyao Li and 
         Shaochen Shi and Yingze Wang and Haotian Ye and Ping Tuo and Jiabin
         Yang and Ye Ding and Yifan Li and Davide Tisi and Qiyu Zeng and Han 
         Bao and Yu Xia and Jiameng Huang and Koki Muraoka and Yibo Wang and 
         Junhan Chang and Fengbo Yuan and Sigbj{\o}rn L{\o}land Bore and Chun
         Cai and Yinnian Lin and Bo Wang and Jiayan Xu and Jia-Xin Zhu and 
         Chenxing Luo and Yuzhi Zhang and Rhys E A Goodall and Wenshuo Liang
         and Anurag Kumar Singh and Sikai Yao and Jingchao Zhang and Renata
         Wentzcovitch and Jiequn Han and Jie Liu and Weile Jia and Darrin M
         York and Weinan E and Roberto Car and Linfeng Zhang and Han Wang},
  journal =  {J. Chem. Phys.},
  volume =   159,
  issue =    5,  
  year =    2023,
  pages  =   054801,
  doi =      {10.1063/5.0155600},
}
@Article{Zeng_JChemTheoryComput_2025_v21_p4375,
  author =   {Jinzhe Zeng and Duo Zhang and Anyang Peng and Xiangyu Zhang and Sensen
             He and Yan Wang and Xinzijian Liu and Hangrui Bi and Yifan Li and Chun
             Cai and Chengqian Zhang and Yiming Du and Jia-Xin Zhu and Pinghui Mo
             and Zhengtao Huang and Qiyu Zeng and Shaochen Shi and Xuejian Qin and
             Zhaoxi Yu and Chenxing Luo and Ye Ding and Yun-Pei Liu and Ruosong Shi
             and Zhenyu Wang and Sigbj{\o}rn L{\o}land Bore and Junhan Chang and
             Zhe Deng and Zhaohan Ding and Siyuan Han and Wanrun Jiang and Guolin
             Ke and Zhaoqing Liu and Denghui Lu and Koki Muraoka and Hananeh Oliaei
             and Anurag Kumar Singh and Haohui Que and Weihong Xu and Zhangmancang
             Xu and Yong-Bin Zhuang and Jiayu Dai and Timothy J. Giese and Weile
             Jia and Ben Xu and Darrin M. York and Linfeng Zhang and Han Wang},
    title =    {{DeePMD-kit v3: A Multiple-Backend Framework for Machine Learning
             Potentials}},
  journal =  {J. Chem. Theory Comput.},
  year =     2025,
  volume =   21,
  number =   9,
  pages =    {4375--4385},
  doi =      {10.1021/acs.jctc.5c00340},
}

CITE-CITE-CITE-CITE-CITE-CITE-CITE-CITE-CITE-CITE-CITE-CITE-CITE

WARNING: No fixes with time integration, atoms won't move (src/verlet.cpp:60)
Generated 0 of 3 mixed pair_coeff terms from geometric mixing rule
Neighbor list info ...
  update: every = 1 steps, delay = 0 steps, check = yes
  max neighbors/atom: 2000, page size: 100000
  master list distance cutoff = 7.5
  ghost atom cutoff = 7.5
  binsize = 3.75, bins = 4 3 8
  1 neighbor lists, perpetual/occasional/extra = 1 0 0
  (1) pair deepmd, perpetual
      attributes: full, newton on
      pair build: full/bin/atomonly
      stencil: full/bin/3d
      bin: standard
Per MPI rank memory allocation (min/avg/max) = 2.982 | 3.069 | 3.107 Mbytes
   Step          Temp          E_pair         E_mol          TotEng         Press     
         0   194.31966     -907.59417      0             -905.15774      25343.294    
Loop time of 2.124e-06 on 4 procs for 0 steps with 98 atoms

58.9% CPU use with 4 MPI tasks x 1 OpenMP threads

MPI task timing breakdown:
Section |  min time  |  avg time  |  max time  |%varavg| %total
---------------------------------------------------------------
Pair    | 0          | 0          | 0          |   0.0 |  0.00
Neigh   | 0          | 0          | 0          |   0.0 |  0.00
Comm    | 0          | 0          | 0          |   0.0 |  0.00
Output  | 0          | 0          | 0          |   0.0 |  0.00
Modify  | 0          | 0          | 0          |   0.0 |  0.00
Other   |            | 2.124e-06  |            |       |100.00

Nlocal:           24.5 ave          65 max           0 min
Histogram: 2 0 0 0 1 0 0 0 0 1
Nghost:          657.5 ave         744 max         494 min
Histogram: 1 0 0 0 0 0 0 1 1 1
Neighs:              0 ave           0 max           0 min
Histogram: 4 0 0 0 0 0 0 0 0 0
FullNghs:         3515 ave        9929 max           0 min
Histogram: 2 0 0 0 1 0 0 0 0 1

Total # of neighbors = 14060
Ave neighs/atom = 143.46939
Neighbor list builds = 0
Dangerous builds = 0

# Compute the difference and absolute value
variable        NO_height equal abs(c_NO_z_avg-c_HOPG_z_avg)  # Absolute height of NO molecule above the third layer

# --- after read_data ---
# Immobilization and dynamics
fix             fixed_layer first_layer setforce 0.0 0.0 0.0  # Fix the first layer atoms in place (no forces applied)
fix             1 all nve
timestep        0.0001

# Output settings
thermo          10
thermo_style    custom temp step pe ke etotal
dump            10 all custom 10 nve.lammpstrj id type x y z vx vy vz fx fy fz


# Run the simulation
timestep        0.0001  # This sets the timestep to 0.1 fs
run             50000 every 500 "if '${NO_height} > 8.0' then quit"  # Stop if NO molecule height exceeds 10 A
Generated 0 of 3 mixed pair_coeff terms from geometric mixing rule
Per MPI rank memory allocation (min/avg/max) = 2.982 | 3.069 | 3.107 Mbytes
     Temp         Step         PotEng         KinEng         TotEng    
 194.31966              0  -907.59417      2.4364254     -905.15774    
 191.77795             10  -907.56229      2.4045568     -905.15773    
 193.4183              20  -907.58286      2.4251239     -905.15773    
 199.26225             30  -907.65614      2.4983967     -905.15774    
 208.12903             40  -907.76733      2.6095705     -905.15776    
 218.18645             50  -907.89344      2.7356728     -905.15777    
 227.7764              60  -908.01369      2.8559138     -905.15778    
 235.84062             70  -908.11481      2.9570249     -905.15779    
 241.54567             80  -908.18635      3.0285562     -905.1578     
 243.60326             90  -908.21217      3.0543547     -905.15781    
 240.26216            100  -908.17028      3.0124632     -905.15782    
 230.27272            110  -908.04503      2.8872133     -905.15782    
 214.03585            120  -907.84143      2.6836316     -905.1578     
 193.96236            130  -907.58971      2.4319455     -905.15777    
 173.86102            140  -907.33764      2.1799102     -905.15773    
 157.82553            150  -907.13656      1.9788534     -905.15771    
 149.11072            160  -907.02728      1.8695851     -905.15769    
 149.28607            170  -907.02948      1.8717837     -905.1577     
 157.83211            180  -907.13665      1.978936      -905.15772    
 172.25516            190  -907.31752      2.1597755     -905.15775    
 188.69328            200  -907.52366      2.3658805     -905.15778    
 202.90808            210  -907.70192      2.544109      -905.15781    
 211.49315            220  -907.80957      2.6517506     -905.15782    
 213.01492            230  -907.82864      2.6708309     -905.15781    
 208.60511            240  -907.77333      2.6155397     -905.15779    
 201.47481            250  -907.6839       2.5261383     -905.15776    
 195.37331            260  -907.60737      2.4496362     -905.15774    
 192.93683            270  -907.57682      2.4190871     -905.15773    
 195.0065             280  -907.60277      2.4450372     -905.15773    
 201.0278             290  -907.67828      2.5205337     -905.15774    
 209.74458            300  -907.78758      2.6298267     -905.15776    
 219.54466            310  -907.91047      2.7527024     -905.15777    
 228.53882            320  -908.02326      2.8654732     -905.15779    
 234.75185            330  -908.10117      2.9433736     -905.1578     
 236.55093            340  -908.12374      2.9659309     -905.1578     
 233.1409             350  -908.08098      2.9231752     -905.1578     
 224.87536            360  -907.97733      2.8195399     -905.15779    
 213.2161             370  -907.83113      2.6733533     -905.15777    
 200.37308            380  -907.67008      2.5123245     -905.15775    
 188.83631            390  -907.52541      2.3676739     -905.15774    
 180.97959            400  -907.42689      2.2691644     -905.15772    
 178.77114            410  -907.39919      2.2414744     -905.15771    
 183.45014            420  -907.45785      2.3001408     -905.15771    
 194.92945            430  -907.6018       2.444071      -905.15773    
 211.08947            440  -907.80445      2.6466892     -905.15776    
 227.74552            450  -908.01333      2.8555266     -905.1578     
 239.86667            460  -908.16534      3.0075044     -905.15783    
 243.55676            470  -908.21161      3.0537716     -905.15784    
 237.57406            480  -908.13659      2.9787592     -905.15783    
 223.59612            490  -907.9613       2.8035005     -905.1578     
 205.39465            500  -907.73305      2.5752862     -905.15776    
Loop time of 29.0864 on 4 procs for 500 steps with 98 atoms

Performance: 0.149 ns/day, 161.591 hours/ns, 17.190 timesteps/s, 1.685 katom-step/s
98.6% CPU use with 4 MPI tasks x 1 OpenMP threads

MPI task timing breakdown:
Section |  min time  |  avg time  |  max time  |%varavg| %total
---------------------------------------------------------------
Pair    | 0.022553   | 11.418     | 28.84      | 335.8 | 39.26
Neigh   | 0          | 0          | 0          |   0.0 |  0.00
Comm    | 0.1512     | 11.023     | 26.158     | 312.7 | 37.90
Output  | 0.016822   | 0.66363    | 2.5988     | 137.2 |  2.28
Modify  | 0.00042998 | 0.0019211  | 0.0026378  |   2.0 |  0.01
Other   |            | 5.98       |            |       | 20.56

Nlocal:           24.5 ave          65 max           0 min
Histogram: 2 0 0 0 1 0 0 0 0 1
Nghost:          657.5 ave         744 max         494 min
Histogram: 1 0 0 0 0 0 0 1 1 1
Neighs:              0 ave           0 max           0 min
Histogram: 4 0 0 0 0 0 0 0 0 0
FullNghs:         3515 ave        9929 max           0 min
Histogram: 2 0 0 0 1 0 0 0 0 1

Total # of neighbors = 14060
Ave neighs/atom = 143.46939
Neighbor list builds = 0
Dangerous builds = 0
if '${NO_height} > 8.0' then quit
Generated 0 of 3 mixed pair_coeff terms from geometric mixing rule
Per MPI rank memory allocation (min/avg/max) = 3.242 | 4.075 | 4.363 Mbytes
     Temp         Step         PotEng         KinEng         TotEng    
 205.39465            500  -907.73305      2.5752862     -905.15776    
 187.54291            510  -907.50918      2.3514569     -905.15773    
 174.15579            520  -907.34131      2.1836061     -905.15771    
 167.90285            530  -907.26291      2.1052052     -905.1577     
 169.38907            540  -907.28155      2.1238398     -905.15771    
 176.99179            550  -907.37691      2.2191646     -905.15774    
 187.27816            560  -907.50591      2.3481374     -905.15778    
 196.06992            570  -907.61618      2.4583705     -905.15781    
 199.98758            580  -907.66531      2.5074911     -905.15782    
 197.93118            590  -907.63951      2.4817075     -905.1578     
 191.65618            600  -907.5608       2.4030301     -905.15777    
 184.86021            610  -907.47556      2.3178206     -905.15774    
 181.22745            620  -907.43         2.2722722     -905.15773    
 182.76691            630  -907.4493       2.2915743     -905.15773    
 189.43848            640  -907.53296      2.375224      -905.15774    
 199.86432            650  -907.6637       2.5059456     -905.15775    
 212.2042             660  -907.81843      2.6606659     -905.15777    
 224.62602            670  -907.97419      2.8164136     -905.15778    
 235.44466            680  -908.10985      2.9520603     -905.15779    
 243.21059            690  -908.20723      3.0494314     -905.1578     
 246.87155            700  -908.25313      3.0953333     -905.1578     
 245.89867            710  -908.24094      3.083135      -905.1578     
 240.3068             720  -908.17082      3.0130229     -905.1578     
 230.61585            730  -908.0493       2.8915156     -905.15779    
 217.79737            740  -907.88857      2.7307944     -905.15778    
 203.29092            750  -907.70667      2.5489091     -905.15776    
 189.13107            760  -907.52911      2.3713696     -905.15774    
 177.97391            770  -907.3892       2.2314786     -905.15772    
 172.60403            780  -907.32186      2.1641497     -905.15771    
 174.77115            790  -907.34903      2.1913216     -905.15771    
 183.99229            800  -907.46467      2.3069384     -905.15773    
 197.3736             810  -907.63248      2.4747164     -905.15777    
 210.81275            820  -907.80101      2.6432196     -905.15779    
 220.7758             830  -907.92595      2.7681387     -905.15781    
 225.47811            840  -907.9849       2.8270974     -905.15781    
 225.02874            850  -907.97926      2.8214631     -905.15779    
 220.90434            860  -907.92753      2.7697503     -905.15778    
 215.25004            870  -907.85661      2.6988553     -905.15776    
 210.23767            880  -907.79375      2.6360091     -905.15775    
 207.51127            890  -907.75956      2.6018248     -905.15774    
 207.75204            900  -907.76259      2.6048436     -905.15774    
 210.48811            910  -907.7969       2.6391492     -905.15776    
 214.2703             920  -907.84434      2.6865712     -905.15777    
 217.22299            930  -907.88138      2.7235927     -905.15778    
 217.859              940  -907.88936      2.7315672     -905.15779    
 215.78737            950  -907.86337      2.7055926     -905.15778    
 211.71668            960  -907.81233      2.6545532     -905.15777    
 206.58795            970  -907.74802      2.5902481     -905.15777    
 200.60383            980  -907.673        2.5152178     -905.15778    
 193.21926            990  -907.58041      2.4226283     -905.15778    
 184.22776           1000  -907.46766      2.3098908     -905.15777    
Loop time of 29.1666 on 4 procs for 500 steps with 98 atoms

Performance: 0.148 ns/day, 162.036 hours/ns, 17.143 timesteps/s, 1.680 katom-step/s
98.6% CPU use with 4 MPI tasks x 1 OpenMP threads

MPI task timing breakdown:
Section |  min time  |  avg time  |  max time  |%varavg| %total
---------------------------------------------------------------
Pair    | 0.024761   | 11.367     | 29.048     | 338.2 | 38.97
Neigh   | 0          | 0          | 0          |   0.0 |  0.00
Comm    | 0.06135    | 11.169     | 26.338     | 314.8 | 38.29
Output  | 0.021349   | 0.69758    | 2.6941     | 138.0 |  2.39
Modify  | 0.00045574 | 0.0019738  | 0.0027539  |   2.0 |  0.01
Other   |            | 5.93       |            |       | 20.33

Nlocal:           24.5 ave          66 max           0 min
Histogram: 2 0 0 0 1 0 0 0 0 1
Nghost:         656.75 ave         743 max         494 min
Histogram: 1 0 0 0 0 0 0 1 1 1
Neighs:              0 ave           0 max           0 min
Histogram: 4 0 0 0 0 0 0 0 0 0
FullNghs:       3529.5 ave       10090 max           0 min
Histogram: 2 0 0 1 0 0 0 0 0 1

Total # of neighbors = 14118
Ave neighs/atom = 144.06122
Neighbor list builds = 0
Dangerous builds = 0
if '${NO_height} > 8.0' then quit
Generated 0 of 3 mixed pair_coeff terms from geometric mixing rule
Per MPI rank memory allocation (min/avg/max) = 3.242 | 4.076 | 4.363 Mbytes
     Temp         Step         PotEng         KinEng         TotEng    
 184.22776           1000  -907.46766      2.3098908     -905.15777    
 174.8829            1010  -907.35047      2.1927228     -905.15775    
 167.93178           1020  -907.26329      2.1055679     -905.15772    
 166.48048           1030  -907.24508      2.0873713     -905.15771    
 172.49642           1040  -907.32051      2.1628005     -905.15771    
 185.80735           1050  -907.48742      2.329696      -905.15773    
 204.00767           1060  -907.71565      2.557896      -905.15776    
 223.18854           1070  -907.95618      2.7983901     -905.15779    
 239.09585           1080  -908.15566      2.9978398     -905.15782    
 248.27063           1090  -908.27071      3.1128753     -905.15783    
 248.88726           1100  -908.27844      3.1206067     -905.15783    
 241.21386           1110  -908.18221      3.0243958     -905.15781    
 227.68883           1120  -908.01259      2.8548158     -905.15778    
 212.45556           1130  -907.82156      2.6638175     -905.15774    
 200.10271           1140  -907.66665      2.5089346     -905.15772    
 193.82474           1150  -907.58793      2.4302199     -905.15771    
 194.02196           1160  -907.59042      2.4326928     -905.15773    
 198.38306           1170  -907.64513      2.4873733     -905.15776    
 203.38535           1180  -907.70788      2.5500931     -905.15778    
 206.06651           1190  -907.7415       2.5837102     -905.15779    
 205.01582           1200  -907.72833      2.5705363     -905.15779    
 200.44675           1210  -907.67103      2.5132482     -905.15778    
 193.78344           1220  -907.58747      2.4297022     -905.15776    
 187.1231            1230  -907.50394      2.3461932     -905.15775    
 182.6946            1240  -907.4484       2.2906677     -905.15773    
 182.31248           1250  -907.4436       2.2858765     -905.15772    
 186.84283           1260  -907.50041      2.3426792     -905.15773    
 195.82052           1270  -907.61299      2.4552435     -905.15774    
 207.44941           1280  -907.75881      2.6010492     -905.15776    
 219.14188           1290  -907.90544      2.7476522     -905.15778    
 228.48344           1300  -908.02258      2.8647788     -905.1578     
 234.10035           1310  -908.093        2.935205      -905.1578     
 235.75974           1320  -908.11381      2.9560108     -905.1578     
 233.66684           1330  -908.08757      2.9297695     -905.1578     
 227.82313           1340  -908.0143       2.8564997     -905.1578     
 218.23222           1350  -907.89404      2.7362467     -905.15779    
 205.68976           1360  -907.73676      2.5789863     -905.15777    
 192.20158           1370  -907.56762      2.4098684     -905.15775    
 180.53335           1380  -907.4213       2.2635694     -905.15773    
 173.26139           1390  -907.33011      2.1723918     -905.15772    
 171.94277           1400  -907.31357      2.1558586     -905.15771    
 176.70039           1410  -907.37324      2.2155109     -905.15772    
 186.21274           1420  -907.49252      2.3347789     -905.15774    
 198.02931           1430  -907.64071      2.4829378     -905.15777    
 209.14273           1440  -907.78007      2.6222805     -905.15779    
 216.7259            1450  -907.87517      2.71736       -905.15781    
 218.94532           1460  -907.903        2.7451876     -905.15781    
 215.72294           1470  -907.86258      2.7047847     -905.15779    
 209.10587           1480  -907.77958      2.6218184     -905.15776    
 202.71998           1490  -907.69949      2.5417506     -905.15774    
 200.12733           1500  -907.66697      2.5092433     -905.15772    
Loop time of 28.546 on 4 procs for 500 steps with 98 atoms

Performance: 0.151 ns/day, 158.589 hours/ns, 17.516 timesteps/s, 1.717 katom-step/s
98.8% CPU use with 4 MPI tasks x 1 OpenMP threads

MPI task timing breakdown:
Section |  min time  |  avg time  |  max time  |%varavg| %total
---------------------------------------------------------------
Pair    | 0.016351   | 11.164     | 28.329     | 357.1 | 39.11
Neigh   | 0          | 0          | 0          |   0.0 |  0.00
Comm    | 0.056436   | 3.0745     | 12.122     | 297.9 | 10.77
Output  | 0.040814   | 1.4497     | 2.8577     | 116.9 |  5.08
Modify  | 0.00024306 | 0.0015877  | 0.0025538  |   2.4 |  0.01
Other   |            | 12.86      |            |       | 45.04

Nlocal:           24.5 ave          64 max           0 min
Histogram: 2 0 0 0 0 1 0 0 0 1
Nghost:            653 ave         738 max         496 min
Histogram: 1 0 0 0 0 0 0 1 1 1
Neighs:              0 ave           0 max           0 min
Histogram: 4 0 0 0 0 0 0 0 0 0
FullNghs:       3528.5 ave        9792 max           0 min
Histogram: 2 0 0 0 1 0 0 0 0 1

Total # of neighbors = 14114
Ave neighs/atom = 144.02041
Neighbor list builds = 0
Dangerous builds = 0
if '${NO_height} > 8.0' then quit
Generated 0 of 3 mixed pair_coeff terms from geometric mixing rule
Per MPI rank memory allocation (min/avg/max) = 3.242 | 4.076 | 4.363 Mbytes
     Temp         Step         PotEng         KinEng         TotEng    
 200.12733           1500  -907.66697      2.5092433     -905.15772    
 202.85581           1510  -907.70119      2.5434536     -905.15774    
 209.50194           1520  -907.78455      2.6267843     -905.15776    
 216.65388           1530  -907.87425      2.7164571     -905.15779    
 220.89389           1540  -907.92742      2.7696193     -905.15781    
 220.3803            1550  -907.92098      2.7631798     -905.1578     
 215.22892           1560  -907.85638      2.6985905     -905.15779    
 206.98315           1570  -907.75297      2.5952032     -905.15777    
 197.78302           1580  -907.63761      2.4798498     -905.15776    
 189.64394           1590  -907.53554      2.3778001     -905.15774    
 183.98047           1600  -907.46453      2.3067902     -905.15774    
 181.38378           1610  -907.43197      2.2742323     -905.15774    
 181.67877           1620  -907.43568      2.2779309     -905.15775    
 184.21829           1630  -907.46753      2.309772      -905.15775    
 188.27683           1640  -907.51842      2.360659      -905.15776    
 193.44606           1650  -907.58323      2.425472      -905.15776    
 199.8948            1660  -907.66408      2.5063278     -905.15775    
 208.17097           1670  -907.76785      2.6100963     -905.15775    
 218.39559           1680  -907.89605      2.738295      -905.15776    
 229.3974            1690  -908.03402      2.8762383     -905.15778    
 238.71758           1700  -908.1509       2.9930969     -905.1578     
 243.76618           1710  -908.21421      3.0563974     -905.15781    
 243.28777           1720  -908.2082       3.050399      -905.1578     
 237.96716           1730  -908.14147      2.983688      -905.15779    
 229.85506           1740  -908.03974      2.8819765     -905.15777    
 221.2572            1750  -907.93193      2.7741745     -905.15775    
 213.87479           1760  -907.83936      2.6816122     -905.15775    
 208.50439           1770  -907.77202      2.6142769     -905.15775    
 205.14123           1780  -907.72986      2.5721088     -905.15775    
 203.18843           1790  -907.70538      2.5476241     -905.15776    
 201.61012           1800  -907.68561      2.5278348     -905.15777    
 199.12145           1810  -907.65441      2.4966314     -905.15778    
 194.63364           1820  -907.59814      2.4403621     -905.15778    
 187.98217           1830  -907.51474      2.3569644     -905.15777    
 180.55038           1840  -907.42153      2.2637829     -905.15775    
 175.11462           1850  -907.35335      2.195628      -905.15773    
 174.58738           1860  -907.34673      2.1890175     -905.15772    
 180.32779           1870  -907.41872      2.2609921     -905.15772    
 191.27499           1880  -907.556        2.3982506     -905.15775    
 204.50478           1890  -907.7219       2.5641288     -905.15778    
 216.61175           1900  -907.87372      2.7159288     -905.1578     
 224.90127           1910  -907.97767      2.8198647     -905.15781    
 227.94521           1920  -908.01584      2.8580304     -905.15781    
 225.6635            1930  -907.98722      2.8294218     -905.1578     
 219.17636           1940  -907.90586      2.7480844     -905.15778    
 210.48025           1950  -907.79681      2.6390507     -905.15776    
 201.90463           1960  -907.68927      2.5315275     -905.15775    
 195.40754           1970  -907.6078       2.4500655     -905.15774    
 191.94442           1980  -907.56438      2.4066441     -905.15774    
 191.23102           1990  -907.55545      2.3976993     -905.15775    
 192.11933           2000  -907.5666       2.4088371     -905.15776    
Loop time of 28.6711 on 4 procs for 500 steps with 98 atoms

Performance: 0.151 ns/day, 159.284 hours/ns, 17.439 timesteps/s, 1.709 katom-step/s
98.9% CPU use with 4 MPI tasks x 1 OpenMP threads

MPI task timing breakdown:
Section |  min time  |  avg time  |  max time  |%varavg| %total
---------------------------------------------------------------
Pair    | 0.016399   | 11.149     | 28.528     | 358.7 | 38.89
Neigh   | 0          | 0          | 0          |   0.0 |  0.00
Comm    | 0.028239   | 3.1616     | 12.554     | 305.0 | 11.03
Output  | 0.038792   | 1.4876     | 2.9298     | 118.2 |  5.19
Modify  | 0.00021789 | 0.0013761  | 0.0025386  |   3.1 |  0.00
Other   |            | 12.87      |            |       | 44.89

Nlocal:           24.5 ave          65 max           0 min
Histogram: 2 0 0 0 0 1 0 0 0 1
Nghost:            653 ave         738 max         496 min
Histogram: 1 0 0 0 0 0 0 1 1 1
Neighs:              0 ave           0 max           0 min
Histogram: 4 0 0 0 0 0 0 0 0 0
FullNghs:       3533.5 ave        9941 max           0 min
Histogram: 2 0 0 0 1 0 0 0 0 1

Total # of neighbors = 14134
Ave neighs/atom = 144.22449
Neighbor list builds = 0
Dangerous builds = 0
if '${NO_height} > 8.0' then quit
Generated 0 of 3 mixed pair_coeff terms from geometric mixing rule
Per MPI rank memory allocation (min/avg/max) = 3.242 | 4.076 | 4.363 Mbytes
     Temp         Step         PotEng         KinEng         TotEng    
 192.11933           2000  -907.5666       2.4088371     -905.15776    
 193.47497           2010  -907.5836       2.4258345     -905.15776    
 194.99673           2020  -907.60267      2.4449146     -905.15776    
 197.26526           2030  -907.63111      2.473358      -905.15775    
 200.87867           2040  -907.67642      2.5186638     -905.15776    
 205.49353           2050  -907.73429      2.576526      -905.15777    
 209.80632           2060  -907.78838      2.6306007     -905.15778    
 212.55603           2070  -907.82286      2.6650773     -905.15778    
 213.58519           2080  -907.83575      2.6779811     -905.15777    
 214.0372            2090  -907.8414       2.6836485     -905.15776    
 215.6439            2100  -907.86154      2.7037937     -905.15775    
 219.69332           2110  -907.91231      2.7545662     -905.15774    
 226.26067           2120  -907.99466      2.8369092     -905.15776    
 233.98526           2130  -908.09154      2.9337619     -905.15777    
 240.4221            2140  -908.17227      3.0144685     -905.1578     
 242.82267           2150  -908.20238      3.0445675     -905.15781    
 239.08187           2160  -908.15548      2.9976645     -905.15782    
 228.58177           2170  -908.02382      2.8660117     -905.15781    
 212.73784           2180  -907.82514      2.6673568     -905.15778    
 195.028             2190  -907.60305      2.4453067     -905.15774    
 180.16893           2200  -907.41671      2.2590002     -905.15771    
 172.33546           2210  -907.31848      2.1607823     -905.1577     
 173.12574           2220  -907.3284       2.170691      -905.15771    
 180.6405            2230  -907.42266      2.2649129     -905.15775    
 190.51389           2240  -907.54649      2.3887077     -905.15778    
 198.23054           2250  -907.64327      2.4854609     -905.15781    
 201.12499           2260  -907.67956      2.5217522     -905.1578     
 199.0352            2270  -907.65334      2.4955499     -905.15779    
 193.78271           2280  -907.58746      2.429693      -905.15777    
 188.16712           2290  -907.51703      2.3592834     -905.15774    
 184.96932           2300  -907.47692      2.3191887     -905.15773    
 186.15722           2310  -907.49181      2.3340828     -905.15772    
 192.33185           2320  -907.56923      2.4115017     -905.15773    
 202.45876           2330  -907.69623      2.5384753     -905.15775    
 214.00984           2340  -907.84109      2.6833054     -905.15778    
 223.62776           2350  -907.9617       2.8038972     -905.15781    
 228.26794           2360  -908.0199       2.8620768     -905.15782    
 226.44236           2370  -907.997        2.8391874     -905.15781    
 218.83258           2380  -907.90157      2.7437741     -905.15779    
 207.75272           2390  -907.76262      2.6048522     -905.15777    
 195.86309           2400  -907.61353      2.4557773     -905.15776    
 185.18614           2410  -907.47965      2.3219071     -905.15775    
 177.05498           2420  -907.37769      2.2199567     -905.15774    
 172.60505           2430  -907.32189      2.1641625     -905.15773    
 172.94029           2440  -907.32609      2.1683658     -905.15772    
 178.66231           2450  -907.39783      2.2401099     -905.15772    
 189.25251           2460  -907.53063      2.3728922     -905.15774    
 202.9221            2470  -907.70204      2.5442848     -905.15776    
 217.09797           2480  -907.87981      2.7220252     -905.15778    
 229.25178           2490  -908.03221      2.8744125     -905.15779    
 237.61571           2500  -908.13708      2.9792813     -905.1578     
Loop time of 28.555 on 4 procs for 500 steps with 98 atoms

Performance: 0.151 ns/day, 158.639 hours/ns, 17.510 timesteps/s, 1.716 katom-step/s
98.8% CPU use with 4 MPI tasks x 1 OpenMP threads

MPI task timing breakdown:
Section |  min time  |  avg time  |  max time  |%varavg| %total
---------------------------------------------------------------
Pair    | 0.016671   | 11.181     | 28.432     | 357.8 | 39.16
Neigh   | 0          | 0          | 0          |   0.0 |  0.00
Comm    | 0.0174     | 3.0736     | 12.228     | 301.5 | 10.76
Output  | 0.036711   | 1.4619     | 2.8858     | 117.8 |  5.12
Modify  | 0.00024135 | 0.0013829  | 0.0025509  |   3.0 |  0.00
Other   |            | 12.84      |            |       | 44.96

Nlocal:           24.5 ave          64 max           0 min
Histogram: 2 0 0 0 0 1 0 0 0 1
Nghost:            650 ave         726 max         496 min
Histogram: 1 0 0 0 0 0 0 1 0 2
Neighs:              0 ave           0 max           0 min
Histogram: 4 0 0 0 0 0 0 0 0 0
FullNghs:       3527.5 ave        9775 max           0 min
Histogram: 2 0 0 0 1 0 0 0 0 1

Total # of neighbors = 14110
Ave neighs/atom = 143.97959
Neighbor list builds = 0
Dangerous builds = 0
if '${NO_height} > 8.0' then quit
Generated 0 of 3 mixed pair_coeff terms from geometric mixing rule
Per MPI rank memory allocation (min/avg/max) = 3.242 | 4.076 | 4.363 Mbytes
     Temp         Step         PotEng         KinEng         TotEng    
 237.61571           2500  -908.13708      2.9792813     -905.1578     
 241.48083           2510  -908.18554      3.0277431     -905.1578     
 241.07675           2520  -908.18047      3.0226767     -905.15779    
 237.2796            2530  -908.13285      2.9750671     -905.15778    
 231.434             2540  -908.05954      2.9017737     -905.15777    
 225.30221           2550  -907.98264      2.8248919     -905.15775    
 220.77102           2560  -907.92582      2.7680787     -905.15774    
 219.02488           2570  -907.90393      2.7461852     -905.15775    
 219.61695           2580  -907.91137      2.7536087     -905.15776    
 220.38149           2590  -907.92098      2.7631947     -905.15779    
 218.55739           2600  -907.89812      2.7403237     -905.1578     
 212.35961           2610  -907.82041      2.6626145     -905.1578     
 201.86847           2620  -907.68886      2.5310741     -905.15778    
 188.85723           2630  -907.5257       2.3679362     -905.15776    
 176.00865           2640  -907.36458      2.2068376     -905.15774    
 166.067             2650  -907.23991      2.082187      -905.15772    
 161.15281           2660  -907.17829      2.0205717     -905.15772    
 162.28088           2670  -907.19243      2.0347156     -905.15772    
 169.11134           2680  -907.27809      2.1203576     -905.15773    
 179.97968           2690  -907.41438      2.2566274     -905.15775    
 192.26424           2700  -907.56843      2.4106541     -905.15778    
 203.12365           2710  -907.70461      2.5468119     -905.1578     
 210.48804           2720  -907.79695      2.6391483     -905.1578     
 213.89413           2730  -907.83964      2.6818546     -905.15779    
 214.5353            2740  -907.84767      2.6898938     -905.15777    
 214.26016           2750  -907.84421      2.6864441     -905.15776    
 214.20816           2760  -907.84356      2.6857921     -905.15777    
 214.23418           2770  -907.84389      2.6861182     -905.15777    
 213.50608           2780  -907.83477      2.6769892     -905.15778    
 211.53              2790  -907.80999      2.6522126     -905.15777    
 208.65176           2800  -907.77389      2.6161246     -905.15776    
 205.81971           2810  -907.73837      2.5806157     -905.15776    
 204.01927           2820  -907.71579      2.5580414     -905.15775    
 203.7932            2830  -907.71296      2.5552069     -905.15775    
 205.04322           2840  -907.72864      2.5708799     -905.15776    
 207.14445           2850  -907.75499      2.5972256     -905.15776    
 209.23593           2860  -907.78122      2.6234491     -905.15777    
 210.49625           2870  -907.79703      2.6392512     -905.15778    
 210.35318           2880  -907.79523      2.6374574     -905.15778    
 208.7133            2890  -907.77467      2.6168962     -905.15777    
 206.24406           2900  -907.7437       2.5859363     -905.15776    
 204.4808            2910  -907.72157      2.5638282     -905.15775    
 205.33601           2920  -907.73229      2.574551      -905.15774    
 209.95702           2930  -907.79023      2.6324902     -905.15774    
 217.69589           2940  -907.88728      2.7295221     -905.15776    
 226.1581            2950  -907.99341      2.8356232     -905.15778    
 232.38254           2960  -908.07147      2.9136666     -905.1578     
 234.20371           2970  -908.09431      2.9365009     -905.15781    
 230.90872           2980  -908.05299      2.8951876     -905.1578     
 223.1264            2990  -907.9554       2.7976111     -905.15779    
 212.38464           3000  -907.8207       2.6629284     -905.15777    
Loop time of 28.1406 on 4 procs for 500 steps with 98 atoms

Performance: 0.154 ns/day, 156.336 hours/ns, 17.768 timesteps/s, 1.741 katom-step/s
98.7% CPU use with 4 MPI tasks x 1 OpenMP threads

MPI task timing breakdown:
Section |  min time  |  avg time  |  max time  |%varavg| %total
---------------------------------------------------------------
Pair    | 0.016297   | 11.071     | 27.956     | 354.6 | 39.34
Neigh   | 0          | 0          | 0          |   0.0 |  0.00
Comm    | 0.03412    | 2.9705     | 11.753     | 294.2 | 10.56
Output  | 0.026081   | 1.4146     | 2.8034     | 116.6 |  5.03
Modify  | 0.00022231 | 0.0014022  | 0.002596   |   3.1 |  0.00
Other   |            | 12.68      |            |       | 45.07

Nlocal:           24.5 ave          64 max           0 min
Histogram: 2 0 0 0 0 1 0 0 0 1
Nghost:         652.25 ave         729 max         496 min
Histogram: 1 0 0 0 0 0 0 1 0 2
Neighs:              0 ave           0 max           0 min
Histogram: 4 0 0 0 0 0 0 0 0 0
FullNghs:         3515 ave        9730 max           0 min
Histogram: 2 0 0 0 1 0 0 0 0 1

Total # of neighbors = 14060
Ave neighs/atom = 143.46939
Neighbor list builds = 0
Dangerous builds = 0
if '${NO_height} > 8.0' then quit
Generated 0 of 3 mixed pair_coeff terms from geometric mixing rule
Per MPI rank memory allocation (min/avg/max) = 3.242 | 4.076 | 4.363 Mbytes
     Temp         Step         PotEng         KinEng         TotEng    
 212.38464           3000  -907.8207       2.6629284     -905.15777    
 200.66735           3010  -907.67377      2.5160142     -905.15775    
 190.04041           3020  -907.54051      2.3827712     -905.15774    
 182.29652           3030  -907.44341      2.2856765     -905.15773    
 178.58024           3040  -907.39681      2.2390808     -905.15773    
 179.04796           3050  -907.40268      2.2449452     -905.15774    
 182.75902           3060  -907.44923      2.2914754     -905.15775    
 188.03985           3070  -907.51545      2.3576877     -905.15777    
 193.31841           3080  -907.58164      2.4238714     -905.15777    
 197.94305           3090  -907.63963      2.4818563     -905.15777    
 202.27421           3100  -907.69393      2.5361614     -905.15776    
 206.88748           3110  -907.75177      2.5940036     -905.15776    
 211.65119           3120  -907.81151      2.6537321     -905.15777    
 215.596             3130  -907.86097      2.7031931     -905.15778    
 217.61129           3140  -907.88625      2.7284613     -905.15779    
 217.17405           3150  -907.88076      2.722979      -905.15778    
 214.5146            3160  -907.84741      2.6896343     -905.15778    
 210.34964           3170  -907.79518      2.637413      -905.15777    
 205.57068           3180  -907.73526      2.5774933     -905.15776    
 201.05843           3190  -907.67867      2.5209177     -905.15776    
 197.56597           3200  -907.63488      2.4771283     -905.15775    
 195.55431           3210  -907.60966      2.4519057     -905.15775    
 194.98252           3220  -907.60249      2.4447365     -905.15776    
 195.22568           3230  -907.60555      2.4477853     -905.15777    
 195.33254           3240  -907.6069       2.4491251     -905.15777    
 194.67166           3250  -907.59861      2.4408388     -905.15777    
 193.66506           3260  -907.58597      2.4282179     -905.15776    
 193.9433            3270  -907.58945      2.4317065     -905.15774    
 197.4168            3280  -907.63299      2.475258      -905.15773    
 204.76788           3290  -907.72517      2.5674276     -905.15775    
 214.61774           3300  -907.8487       2.6909275     -905.15777    
 224.04116           3310  -907.96687      2.8090805     -905.15779    
 230.17911           3320  -908.04384      2.8860396     -905.1578     
 231.89194           3330  -908.06531      2.9075154     -905.15779    
 230.10978           3340  -908.04295      2.8851703     -905.15778    
 226.86304           3350  -908.00222      2.8444619     -905.15776    
 224.02604           3360  -907.96664      2.808891      -905.15775    
 222.56985           3370  -907.94839      2.7906329     -905.15775    
 222.42591           3380  -907.94659      2.7888281     -905.15776    
 222.50687           3390  -907.94762      2.7898432     -905.15778    
 220.9009            3400  -907.9275       2.7697072     -905.15779    
 215.68417           3410  -907.8621       2.7042987     -905.1578     
 205.82996           3420  -907.73854      2.5807442     -905.1578     
 191.86952           3430  -907.56348      2.405705      -905.15778    
 176.32437           3440  -907.36854      2.2107962     -905.15775    
 163.30807           3450  -907.20531      2.0475948     -905.15771    
 156.9713            3460  -907.12584      1.9681429     -905.15769    
 159.47774           3470  -907.15727      1.9995692     -905.1577     
 169.85922           3480  -907.28746      2.1297346     -905.15773    
 184.63399           3490  -907.47275      2.3149842     -905.15776    
 199.62952           3500  -907.66079      2.5030016     -905.15779    
Loop time of 28.5527 on 4 procs for 500 steps with 98 atoms

Performance: 0.151 ns/day, 158.626 hours/ns, 17.511 timesteps/s, 1.716 katom-step/s
98.8% CPU use with 4 MPI tasks x 1 OpenMP threads

MPI task timing breakdown:
Section |  min time  |  avg time  |  max time  |%varavg| %total
---------------------------------------------------------------
Pair    | 0.015151   | 11.175     | 28.357     | 357.3 | 39.14
Neigh   | 0          | 0          | 0          |   0.0 |  0.00
Comm    | 0.025153   | 3.0514     | 12.115     | 299.6 | 10.69
Output  | 0.077794   | 1.5172     | 2.95       | 116.3 |  5.31
Modify  | 0.00020074 | 0.0013409  | 0.0024914  |   3.0 |  0.00
Other   |            | 12.81      |            |       | 44.86

Nlocal:           24.5 ave          64 max           0 min
Histogram: 2 0 0 0 0 1 0 0 0 1
Nghost:          654.5 ave         732 max         496 min
Histogram: 1 0 0 0 0 0 0 1 0 2
Neighs:              0 ave           0 max           0 min
Histogram: 4 0 0 0 0 0 0 0 0 0
FullNghs:       3521.5 ave        9735 max           0 min
Histogram: 2 0 0 0 1 0 0 0 0 1

Total # of neighbors = 14086
Ave neighs/atom = 143.73469
Neighbor list builds = 0
Dangerous builds = 0
if '${NO_height} > 8.0' then quit
Generated 0 of 3 mixed pair_coeff terms from geometric mixing rule
Per MPI rank memory allocation (min/avg/max) = 3.242 | 4.076 | 4.363 Mbytes
     Temp         Step         PotEng         KinEng         TotEng    
 199.62952           3500  -907.66079      2.5030016     -905.15779    
 211.64061           3510  -907.8114       2.6535995     -905.1578     
 219.12448           3520  -907.90523      2.747434      -905.1578     
 222.04151           3530  -907.9418       2.7840085     -905.15779    
 221.37226           3540  -907.9334       2.7756173     -905.15778    
 218.70106           3550  -907.89989      2.7421251     -905.15776    
 215.83671           3560  -907.86396      2.7062112     -905.15775    
 214.35389           3570  -907.84536      2.6876193     -905.15774    
 215.10545           3580  -907.85479      2.6970425     -905.15775    
 217.84027           3590  -907.88909      2.7313323     -905.15776    
 221.1816            3600  -907.931        2.7732267     -905.15778    
 223.1811            3610  -907.95609      2.7982969     -905.15779    
 222.26772           3620  -907.94464      2.7868447     -905.15779    
 217.975             3630  -907.89081      2.7330216     -905.15779    
 210.86954           3640  -907.80171      2.6439317     -905.15778    
 201.8495            3650  -907.68861      2.5308363     -905.15778    
 191.69439           3660  -907.56128      2.4035092     -905.15777    
 181.36411           3670  -907.43174      2.2739857     -905.15775    
 172.5378            3680  -907.32105      2.1633193     -905.15773    
 167.57118           3690  -907.25876      2.1010466     -905.15772    
 168.68652           3700  -907.27274      2.115031      -905.15771    
 176.91267           3710  -907.37589      2.2181725     -905.15771    
 191.41216           3720  -907.5577       2.3999705     -905.15773    
 209.51417           3730  -907.7847       2.6269377     -905.15776    
 227.3807            3740  -908.00875      2.8509525     -905.1578     
 241.00424           3750  -908.17959      3.0217676     -905.15782    
 247.24098           3760  -908.2578       3.0999652     -905.15783    
 244.65048           3770  -908.22531      3.067485      -905.15783    
 233.98812           3780  -908.0916       2.9337979     -905.15781    
 218.29593           3790  -907.89481      2.7370455     -905.15777    
 202.40432           3800  -907.69552      2.5377927     -905.15773    
 191.5431            3810  -907.55931      2.4016122     -905.1577     
 189.26868           3820  -907.53079      2.373095      -905.15769    
 195.78402           3830  -907.61251      2.4547858     -905.15772    
 207.86535           3840  -907.76403      2.6062644     -905.15776    
 220.52783           3850  -907.92283      2.7650296     -905.1578     
 229.27225           3860  -908.03249      2.8746692     -905.15782    
 231.57927           3870  -908.06141      2.9035951     -905.15782    
 227.22881           3880  -908.00685      2.849048      -905.1578     
 217.85155           3890  -907.88925      2.7314737     -905.15778    
 206.22392           3900  -907.74344      2.5856837     -905.15775    
 195.53144           3910  -907.60935      2.451619      -905.15773    
 188.61753           3920  -907.52265      2.3649307     -905.15772    
 187.25301           3930  -907.50554      2.347822      -905.15772    
 191.60232           3940  -907.56008      2.4023548     -905.15773    
 200.13706           3950  -907.66712      2.5093653     -905.15775    
 210.15706           3960  -907.79277      2.6349984     -905.15777    
 218.82143           3970  -907.90142      2.7436343     -905.15779    
 224.22339           3980  -907.96916      2.8113653     -905.15779    
 225.82496           3990  -907.98924      2.8314462     -905.15779    
 223.9488            4000  -907.96571      2.8079225     -905.15779    
Loop time of 28.7774 on 4 procs for 500 steps with 98 atoms

Performance: 0.150 ns/day, 159.874 hours/ns, 17.375 timesteps/s, 1.703 katom-step/s
98.9% CPU use with 4 MPI tasks x 1 OpenMP threads

MPI task timing breakdown:
Section |  min time  |  avg time  |  max time  |%varavg| %total
---------------------------------------------------------------
Pair    | 0.016392   | 11.17      | 28.648     | 359.5 | 38.81
Neigh   | 0          | 0          | 0          |   0.0 |  0.00
Comm    | 0.016503   | 3.192      | 12.708     | 307.5 | 11.09
Output  | 0.017493   | 1.4634     | 2.9085     | 119.4 |  5.09
Modify  | 0.00023346 | 0.0013766  | 0.0025632  |   3.1 |  0.00
Other   |            | 12.95      |            |       | 45.00

Nlocal:           24.5 ave          65 max           0 min
Histogram: 2 0 0 0 0 1 0 0 0 1
Nghost:            650 ave         726 max         496 min
Histogram: 1 0 0 0 0 0 0 1 0 2
Neighs:              0 ave           0 max           0 min
Histogram: 4 0 0 0 0 0 0 0 0 0
FullNghs:       3509.5 ave        9808 max           0 min
Histogram: 2 0 0 0 1 0 0 0 0 1

Total # of neighbors = 14038
Ave neighs/atom = 143.2449
Neighbor list builds = 0
Dangerous builds = 0
if '${NO_height} > 8.0' then quit
Generated 0 of 3 mixed pair_coeff terms from geometric mixing rule
Per MPI rank memory allocation (min/avg/max) = 3.242 | 4.076 | 4.363 Mbytes
     Temp         Step         PotEng         KinEng         TotEng    
 223.9488            4000  -907.96571      2.8079225     -905.15779    
 218.93844           4010  -907.90289      2.7451014     -905.15779    
 210.96651           4020  -907.80293      2.6451475     -905.15778    
 200.65415           4030  -907.67362      2.5158487     -905.15777    
 189.68247           4040  -907.53603      2.3782832     -905.15775    
 180.60452           4050  -907.42219      2.2644617     -905.15773    
 175.92152           4060  -907.36346      2.2057453     -905.15772    
 177.12147           4070  -907.37851      2.2207904     -905.15772    
 184.24715           4080  -907.46786      2.3101339     -905.15773    
 196.02575           4090  -907.61556      2.4578168     -905.15774    
 210.25181           4100  -907.79395      2.6361864     -905.15776    
 224.20675           4110  -907.96894      2.8111567     -905.15779    
 235.10396           4120  -908.10559      2.9477885     -905.15781    
 240.61798           4130  -908.17474      3.0169246     -905.15782    
 239.55439           4140  -908.1614       3.003589      -905.15781    
 232.51992           4150  -908.07318      2.9153892     -905.15779    
 222.13199           4160  -907.9429       2.7851429     -905.15776    
 212.26133           4170  -907.81912      2.6613822     -905.15773    
 206.33879           4180  -907.74485      2.5871241     -905.15772    
 205.6611            4190  -907.73636      2.5786271     -905.15773    
 208.91931           4200  -907.77724      2.6194792     -905.15776    
 213.26257           4210  -907.83171      2.673936      -905.15778    
 215.95894           4220  -907.86553      2.7077438     -905.15779    
 215.48209           4230  -907.85955      2.7017649     -905.15779    
 211.69232           4240  -907.81203      2.6542479     -905.15778    
 205.49392           4250  -907.7343       2.5765308     -905.15777    
 198.36766           4260  -907.64494      2.4871802     -905.15776    
 191.94087           4270  -907.56434      2.4065995     -905.15774    
 187.6529            4280  -907.51057      2.3528359     -905.15774    
 186.52154           4290  -907.49638      2.3386508     -905.15773    
 188.97891           4300  -907.5272       2.3694618     -905.15773    
 194.84219           4310  -907.60072      2.442977      -905.15774    
 203.49857           4320  -907.70926      2.5515127     -905.15775    
 214.21812           4330  -907.84367      2.6859169     -905.15775    
 226.33156           4340  -907.99556      2.8377981     -905.15776    
 238.94883           4350  -908.15377      2.9959964     -905.15777    
 250.28554           4360  -908.29594      3.1381387     -905.1578     
 257.35433           4370  -908.3846       3.2267688     -905.15783    
 256.78971           4380  -908.37753      3.2196895     -905.15784    
 246.59782           4390  -908.24974      3.0919012     -905.15784    
 227.64946           4400  -908.01213      2.8543223     -905.1578     
 203.82632           4410  -907.71338      2.5556221     -905.15776    
 180.72175           4420  -907.42365      2.2659316     -905.15772    
 163.65257           4430  -907.2096       2.0519143     -905.15769    
 155.9244            4440  -907.1127       1.9550167     -905.15768    
 157.98241           4450  -907.13852      1.9808204     -905.1577     
 167.59454           4460  -907.25907      2.1013395     -905.15773    
 180.80342           4470  -907.42472      2.2669556     -905.15777    
 193.20118           4480  -907.5802       2.4224017     -905.1578     
 201.15593           4490  -907.67995      2.5221401     -905.15781    
 202.784             4500  -907.70036      2.5425533     -905.15781    
Loop time of 28.4582 on 4 procs for 500 steps with 98 atoms

Performance: 0.152 ns/day, 158.101 hours/ns, 17.570 timesteps/s, 1.722 katom-step/s
98.5% CPU use with 4 MPI tasks x 1 OpenMP threads

MPI task timing breakdown:
Section |  min time  |  avg time  |  max time  |%varavg| %total
---------------------------------------------------------------
Pair    | 0.017577   | 11.17      | 28.264     | 356.6 | 39.25
Neigh   | 0          | 0          | 0          |   0.0 |  0.00
Comm    | 0.02596    | 3.0185     | 11.961     | 297.2 | 10.61
Output  | 0.054006   | 1.4466     | 2.8392     | 115.7 |  5.08
Modify  | 0.00030178 | 0.0013812  | 0.0025346  |   2.9 |  0.00
Other   |            | 12.82      |            |       | 45.06

Nlocal:           24.5 ave          64 max           0 min
Histogram: 2 0 0 0 0 1 0 0 0 1
Nghost:            652 ave         728 max         498 min
Histogram: 1 0 0 0 0 0 0 1 0 2
Neighs:              0 ave           0 max           0 min
Histogram: 4 0 0 0 0 0 0 0 0 0
FullNghs:         3516 ave        9682 max           0 min
Histogram: 2 0 0 0 1 0 0 0 0 1

Total # of neighbors = 14064
Ave neighs/atom = 143.5102
Neighbor list builds = 0
Dangerous builds = 0
if '${NO_height} > 8.0' then quit
Generated 0 of 3 mixed pair_coeff terms from geometric mixing rule
Per MPI rank memory allocation (min/avg/max) = 3.242 | 4.076 | 4.363 Mbytes
     Temp         Step         PotEng         KinEng         TotEng    
 202.784             4500  -907.70036      2.5425533     -905.15781    
 198.54005           4510  -907.64713      2.4893417     -905.15779    
 191.22883           4520  -907.55542      2.3976718     -905.15775    
 185.13405           4530  -907.47897      2.321254      -905.15772    
 184.26892           4540  -907.46811      2.3104068     -905.15771    
 190.56137           4550  -907.54702      2.3893031     -905.15771    
 203.11613           4560  -907.70445      2.5467176     -905.15774    
 218.92115           4570  -907.90265      2.7448846     -905.15777    
 234.27957           4580  -908.09524      2.9374521     -905.15779    
 245.98581           4590  -908.24204      3.0842276     -905.15781    
 251.88667           4600  -908.31603      3.158214      -905.15781    
 251.04705           4610  -908.3055       3.1476867     -905.15781    
 243.76947           4620  -908.21424      3.0564387     -905.1578     
 231.49808           4630  -908.06036      2.9025771     -905.15778    
 216.54461           4640  -907.87285      2.7150871     -905.15776    
 201.63302           4650  -907.68586      2.528122      -905.15774    
 189.31615           4660  -907.53142      2.3736902     -905.15773    
 181.38751           4670  -907.432        2.2742791     -905.15772    
 178.52296           4680  -907.39609      2.2383627     -905.15773    
 180.38353           4690  -907.41942      2.261691      -905.15773    
 186.10375           4700  -907.49115      2.3334123     -905.15774    
 194.67083           4710  -907.59858      2.4408284     -905.15775    
 204.77814           4720  -907.72532      2.5675562     -905.15777    
 214.43276           4730  -907.8464       2.6886081     -905.15779    
 221.09529           4740  -907.92995      2.7721445     -905.15781    
 222.68284           4750  -907.94986      2.7920495     -905.15781    
 218.7712            4760  -907.9008       2.7430045     -905.15779    
 210.97294           4770  -907.803        2.645228      -905.15777    
 202.20282           4780  -907.69301      2.5352662     -905.15775    
 195.41463           4790  -907.60789      2.4501544     -905.15773    
 192.53953           4800  -907.57183      2.4141056     -905.15773    
 193.99151           4810  -907.59005      2.432311      -905.15774    
 198.74974           4820  -907.64972      2.4919707     -905.15775    
 204.8405            4830  -907.72611      2.5683382     -905.15777    
 209.9694            4840  -907.79043      2.6326455     -905.15779    
 212.10259           4850  -907.81719      2.6593919     -905.1578     
 209.95048           4860  -907.79021      2.6324083     -905.1578     
 203.40378           4870  -907.70811      2.5503242     -905.15779    
 193.85322           4880  -907.58834      2.4305771     -905.15777    
 184.06764           4890  -907.46562      2.3078831     -905.15774    
 177.30832           4900  -907.38085      2.2231332     -905.15772    
 175.9264            4910  -907.36352      2.2058063     -905.15772    
 180.34402           4920  -907.41892      2.2611955     -905.15773    
 189.16049           4930  -907.52948      2.3717384     -905.15775    
 200.15279           4940  -907.66732      2.5095625     -905.15776    
 211.23747           4950  -907.80632      2.6485448     -905.15777    
 220.80091           4960  -907.92624      2.7684535     -905.15778    
 227.59434           4970  -908.01142      2.8536311     -905.15779    
 230.68078           4980  -908.05012      2.8923296     -905.15779    
 229.64605           4990  -908.03715      2.879356      -905.15779    
 224.89562           5000  -907.97757      2.8197939     -905.15778    
Loop time of 28.4223 on 4 procs for 500 steps with 98 atoms

Performance: 0.152 ns/day, 157.902 hours/ns, 17.592 timesteps/s, 1.724 katom-step/s
98.8% CPU use with 4 MPI tasks x 1 OpenMP threads

MPI task timing breakdown:
Section |  min time  |  avg time  |  max time  |%varavg| %total
---------------------------------------------------------------
Pair    | 0.017411   | 11.163     | 28.209     | 356.2 | 39.27
Neigh   | 0          | 0          | 0          |   0.0 |  0.00
Comm    | 0.023672   | 2.9965     | 11.906     | 297.2 | 10.54
Output  | 0.059579   | 1.493      | 2.9169     | 116.5 |  5.25
Modify  | 0.00026725 | 0.0016042  | 0.0025888  |   2.3 |  0.01
Other   |            | 12.77      |            |       | 44.92

Nlocal:           24.5 ave          64 max           0 min
Histogram: 2 0 0 0 0 1 0 0 0 1
Nghost:            659 ave         735 max         505 min
Histogram: 1 0 0 0 0 0 0 1 0 2
Neighs:              0 ave           0 max           0 min
Histogram: 4 0 0 0 0 0 0 0 0 0
FullNghs:       3506.5 ave        9637 max           0 min
Histogram: 2 0 0 0 1 0 0 0 0 1

Total # of neighbors = 14026
Ave neighs/atom = 143.12245
Neighbor list builds = 0
Dangerous builds = 0
if '${NO_height} > 8.0' then quit
Generated 0 of 3 mixed pair_coeff terms from geometric mixing rule
Per MPI rank memory allocation (min/avg/max) = 3.242 | 4.076 | 4.363 Mbytes
     Temp         Step         PotEng         KinEng         TotEng    
 224.89562           5000  -907.97757      2.8197939     -905.15778    
 217.70057           5010  -907.88735      2.7295807     -905.15777    
 209.82576           5020  -907.7886       2.6308445     -905.15775    
 202.91024           5030  -907.70188      2.5441361     -905.15775    
 197.98237           5040  -907.64009      2.4823493     -905.15774    
 195.42167           5050  -907.60799      2.4502426     -905.15774    
 195.35567           5060  -907.60716      2.4494151     -905.15774    
 198.07527           5070  -907.64125      2.4835141     -905.15774    
 203.913             5080  -907.71445      2.5567089     -905.15774    
 212.48792           5090  -907.82198      2.6642233     -905.15775    
 222.01849           5100  -907.9415       2.7837198     -905.15778    
 229.60352           5110  -908.03662      2.8788226     -905.1578     
 232.54082           5120  -908.07346      2.9156513     -905.15781    
 229.73859           5130  -908.03832      2.8805162     -905.1578     
 222.20049           5140  -907.94378      2.7860018     -905.15778    
 212.42764           5150  -907.82122      2.6634675     -905.15776    
 203.3254            5160  -907.70708      2.5493415     -905.15774    
 197.23182           5170  -907.63067      2.4729388     -905.15773    
 195.33492           5180  -907.60688      2.449155      -905.15773    
 197.46536           5190  -907.63361      2.4758669     -905.15774    
 202.16089           5200  -907.6925       2.5347406     -905.15776    
 206.95953           5210  -907.75269      2.594907      -905.15778    
 208.97517           5220  -907.77798      2.6201796     -905.1578     
 205.7871            5230  -907.73802      2.5802069     -905.15781    
 196.47738           5240  -907.62128      2.4634794     -905.1578     
 182.40245           5250  -907.44478      2.2870046     -905.15777    
 167.15039           5260  -907.25351      2.0957707     -905.15774    
 155.34323           5270  -907.10543      1.9477298     -905.15771    
 150.68511           5280  -907.04702      1.8893252     -905.1577     
 154.40665           5290  -907.09369      1.9359867     -905.15771    
 165.06516           5300  -907.22736      2.0696256     -905.15773    
 179.58076           5310  -907.40938      2.2516256     -905.15776    
 194.56582           5320  -907.59729      2.4395118     -905.15778    
 207.20474           5330  -907.75578      2.5979815     -905.15779    
 215.6601            5340  -907.8618       2.7039968     -905.1578     
 219.27575           5350  -907.90713      2.7493307     -905.1578     
 218.62219           5360  -907.89892      2.7411362     -905.15778    
 215.28505           5370  -907.85706      2.6992944     -905.15777    
 211.34355           5380  -907.80763      2.6498749     -905.15775    
 208.59575           5390  -907.77317      2.6154224     -905.15774    
 207.81794           5400  -907.76342      2.60567       -905.15775    
 208.4559            5410  -907.77143      2.6136689     -905.15776    
 208.96888           5420  -907.77788      2.6201007     -905.15778    
 207.71123           5430  -907.76212      2.604332      -905.15778    
 203.91421           5440  -907.7145       2.5567241     -905.15778    
 198.13088           5450  -907.64198      2.4842114     -905.15777    
 191.72701           5460  -907.56168      2.4039181     -905.15776    
 185.86991           5470  -907.48824      2.3304804     -905.15775    
 181.02445           5480  -907.42748      2.2697269     -905.15775    
 177.30661           5490  -907.38086      2.2231118     -905.15775    
 175.07557           5500  -907.35288      2.1951384     -905.15774    
Loop time of 28.5284 on 4 procs for 500 steps with 98 atoms

Performance: 0.151 ns/day, 158.491 hours/ns, 17.526 timesteps/s, 1.718 katom-step/s
98.7% CPU use with 4 MPI tasks x 1 OpenMP threads

MPI task timing breakdown:
Section |  min time  |  avg time  |  max time  |%varavg| %total
---------------------------------------------------------------
Pair    | 0.017426   | 11.179     | 28.292     | 356.8 | 39.19
Neigh   | 0          | 0          | 0          |   0.0 |  0.00
Comm    | 0.037685   | 3.0332     | 12.005     | 297.4 | 10.63
Output  | 0.037376   | 1.476      | 2.907      | 117.8 |  5.17
Modify  | 0.0002742  | 0.0014831  | 0.002578   |   2.5 |  0.01
Other   |            | 12.84      |            |       | 45.00

Nlocal:           24.5 ave          64 max           0 min
Histogram: 2 0 0 0 0 1 0 0 0 1
Nghost:            653 ave         729 max         499 min
Histogram: 1 0 0 0 0 0 0 1 0 2
Neighs:              0 ave           0 max           0 min
Histogram: 4 0 0 0 0 0 0 0 0 0
FullNghs:       3503.5 ave        9623 max           0 min
Histogram: 2 0 0 0 1 0 0 0 0 1

Total # of neighbors = 14014
Ave neighs/atom = 143
Neighbor list builds = 0
Dangerous builds = 0
if '${NO_height} > 8.0' then quit
Generated 0 of 3 mixed pair_coeff terms from geometric mixing rule
Per MPI rank memory allocation (min/avg/max) = 3.242 | 4.076 | 4.363 Mbytes
     Temp         Step         PotEng         KinEng         TotEng    
 175.07557           5500  -907.35288      2.1951384     -905.15774    
 175.03955           5510  -907.35243      2.1946868     -905.15774    
 177.82055           5520  -907.38729      2.2295556     -905.15774    
 183.46247           5530  -907.45804      2.3002954     -905.15774    
 191.29036           5540  -907.5562       2.3984433     -905.15775    
 200.12633           5550  -907.66699      2.5092308     -905.15776    
 208.61715           5560  -907.77346      2.6156906     -905.15777    
 215.48224           5570  -907.85955      2.7017667     -905.15778    
 219.65925           5580  -907.91193      2.7541391     -905.15779    
 220.40659           5590  -907.9213       2.7635094     -905.15779    
 217.43625           5600  -907.88405      2.7262666     -905.15779    
 211.14699           5610  -907.80519      2.6474104     -905.15778    
 202.88119           5620  -907.70153      2.5437719     -905.15776    
 194.84296           5630  -907.60073      2.4429867     -905.15774    
 189.3083            5640  -907.53133      2.3735917     -905.15773    
 187.37603           5650  -907.50711      2.3493646     -905.15774    
 188.22554           5660  -907.51777      2.3600158     -905.15776    
 189.64477           5670  -907.53559      2.3778105     -905.15778    
 189.49049           5680  -907.53366      2.3758762     -905.15778    
 186.96297           5690  -907.50196      2.3441855     -905.15777    
 182.9209            5700  -907.45126      2.293505      -905.15776    
 179.32728           5710  -907.40619      2.2484474     -905.15774    
 178.35394           5720  -907.39397      2.2362434     -905.15773    
 181.57193           5730  -907.43431      2.2765914     -905.15772    
 189.42044           5740  -907.53273      2.3749978     -905.15773    
 201.00833           5750  -907.67804      2.5202894     -905.15775    
 214.25892           5760  -907.8442       2.6864284     -905.15777    
 226.39141           5770  -907.99634      2.8385485     -905.15779    
 234.66798           5780  -908.10013      2.9423221     -905.15781    
 237.24217           5790  -908.13241      2.9745979     -905.15781    
 233.88808           5800  -908.09034      2.9325435     -905.1578     
 226.3102            5810  -907.9953       2.8375303     -905.15777    
 217.65513           5820  -907.88676      2.729011      -905.15774    
 211.15509           5830  -907.80524      2.647512      -905.15773    
 208.59776           5840  -907.77318      2.6154475     -905.15773    
 209.67763           5850  -907.78674      2.6289872     -905.15775    
 212.60259           5860  -907.82343      2.6656611     -905.15776    
 215.29602           5870  -907.85721      2.6994318     -905.15778    
 216.27198           5880  -907.86945      2.7116687     -905.15778    
 214.87631           5890  -907.85195      2.6941695     -905.15778    
 211.20485           5900  -907.80591      2.6481358     -905.15777    
 206.01422           5910  -907.74082      2.5830545     -905.15776    
 200.60329           5920  -907.67296      2.5152109     -905.15775    
 196.54068           5930  -907.62201      2.464273      -905.15774    
 195.23948           5940  -907.60569      2.4479583     -905.15773    
 197.46032           5950  -907.63354      2.4758037     -905.15774    
 202.90706           5960  -907.70184      2.5440963     -905.15775    
 210.19147           5970  -907.79319      2.6354298     -905.15776    
 217.3583            5980  -907.88307      2.7252892     -905.15778    
 222.79976           5990  -907.9513       2.7935156     -905.15778    
 225.97129           6000  -907.99106      2.8332809     -905.15778    
Loop time of 28.8754 on 4 procs for 500 steps with 98 atoms

Performance: 0.150 ns/day, 160.419 hours/ns, 17.316 timesteps/s, 1.697 katom-step/s
98.9% CPU use with 4 MPI tasks x 1 OpenMP threads

MPI task timing breakdown:
Section |  min time  |  avg time  |  max time  |%varavg| %total
---------------------------------------------------------------
Pair    | 0.015893   | 11.217     | 28.736     | 360.0 | 38.85
Neigh   | 0          | 0          | 0          |   0.0 |  0.00
Comm    | 0.0099813  | 3.1869     | 12.708     | 307.9 | 11.04
Output  | 0.046823   | 1.5071     | 2.9559     | 118.0 |  5.22
Modify  | 0.00020107 | 0.0013557  | 0.0025043  |   3.0 |  0.00
Other   |            | 12.96      |            |       | 44.89

Nlocal:           24.5 ave          65 max           0 min
Histogram: 2 0 0 0 0 1 0 0 0 1
Nghost:            650 ave         726 max         496 min
Histogram: 1 0 0 0 0 0 0 1 0 2
Neighs:              0 ave           0 max           0 min
Histogram: 4 0 0 0 0 0 0 0 0 0
FullNghs:         3534 ave        9844 max           0 min
Histogram: 2 0 0 0 1 0 0 0 0 1

Total # of neighbors = 14136
Ave neighs/atom = 144.2449
Neighbor list builds = 0
Dangerous builds = 0
if '${NO_height} > 8.0' then quit
Generated 0 of 3 mixed pair_coeff terms from geometric mixing rule
Per MPI rank memory allocation (min/avg/max) = 3.242 | 4.076 | 4.363 Mbytes
     Temp         Step         PotEng         KinEng         TotEng    
 225.97129           6000  -907.99106      2.8332809     -905.15778    
 227.27873           6010  -908.00745      2.8496739     -905.15777    
 227.18013           6020  -908.00621      2.8484377     -905.15778    
 225.40412           6030  -907.98395      2.8261696     -905.15778    
 221.12449           6040  -907.9303       2.7725106     -905.15779    
 213.9113            6050  -907.83985      2.6820699     -905.15778    
 204.51844           6060  -907.72206      2.5643001     -905.15776    
 194.8731            6070  -907.60111      2.4433645     -905.15774    
 187.41103           6080  -907.50753      2.3498034     -905.15773    
 184.23501           6090  -907.4677       2.3099817     -905.15772    
 186.42949           6100  -907.49522      2.3374965     -905.15772    
 193.67951           6110  -907.58613      2.428399      -905.15773    
 204.25869           6120  -907.7188       2.5610433     -905.15776    
 215.39969           6130  -907.85851      2.7007318     -905.15778    
 223.99811           6140  -907.96634      2.8085408     -905.1578     
 227.52083           6150  -908.01052      2.8527094     -905.15781    
 224.91599           6160  -907.97785      2.8200494     -905.15781    
 217.24065           6170  -907.88159      2.7238141     -905.15778    
 207.59925           6180  -907.76068      2.6029279     -905.15775    
 200.03404           6190  -907.6658       2.5080737     -905.15772    
 197.61396           6200  -907.63545      2.47773       -905.15772    
 200.85551           6210  -907.67611      2.5183734     -905.15774    
 207.63471           6220  -907.76114      2.6033726     -905.15776    
 214.57202           6230  -907.84814      2.6903542     -905.15779    
 218.75151           6240  -907.90055      2.7427576     -905.1578     
 218.71064           6250  -907.90004      2.7422452     -905.15779    
 214.5172            6260  -907.84745      2.6896669     -905.15778    
 207.3498            6270  -907.75757      2.5998003     -905.15777    
 198.98375           6280  -907.65266      2.4949049     -905.15775    
 191.33763           6290  -907.55678      2.399036      -905.15774    
 186.09894           6300  -907.49108      2.3333521     -905.15773    
 184.42327           6310  -907.47007      2.3123421     -905.15773    
 186.70564           6320  -907.49869      2.340959      -905.15773    
 192.49006           6330  -907.57123      2.4134855     -905.15774    
 200.65422           6340  -907.6736       2.5158496     -905.15775    
 209.886             6350  -907.78936      2.6315998     -905.15776    
 219.16368           6360  -907.90569      2.7479255     -905.15777    
 227.77526           6370  -908.01367      2.8558995     -905.15778    
 234.76861           6380  -908.10137      2.9435838     -905.15779    
 238.48119           6390  -908.14794      2.990133      -905.15781    
 236.97351           6400  -908.12904      2.9712293     -905.15781    
 229.29387           6410  -908.03274      2.8749402     -905.1578     
 216.51833           6420  -907.87254      2.7147575     -905.15778    
 201.6527            6430  -907.68612      2.5283687     -905.15775    
 188.494             6440  -907.5211       2.3633819     -905.15772    
 180.20775           6450  -907.4172       2.2594869     -905.15771    
 178.30135           6460  -907.3933       2.2355841     -905.15771    
 182.29891           6470  -907.44344      2.2857064     -905.15773    
 190.07821           6480  -907.541        2.3832451     -905.15776    
 198.63494           6490  -907.64831      2.4905314     -905.15778    
 205.003             6500  -907.72817      2.5703756     -905.1578     
Loop time of 28.7422 on 4 procs for 500 steps with 98 atoms

Performance: 0.150 ns/day, 159.679 hours/ns, 17.396 timesteps/s, 1.705 katom-step/s
98.9% CPU use with 4 MPI tasks x 1 OpenMP threads

MPI task timing breakdown:
Section |  min time  |  avg time  |  max time  |%varavg| %total
---------------------------------------------------------------
Pair    | 0.016349   | 11.191     | 28.644     | 359.4 | 38.93
Neigh   | 0          | 0          | 0          |   0.0 |  0.00
Comm    | 0.010805   | 3.1612     | 12.603     | 306.6 | 11.00
Output  | 0.039862   | 1.504      | 2.962      | 118.8 |  5.23
Modify  | 0.00024031 | 0.001562   | 0.0025357  |   2.4 |  0.01
Other   |            | 12.88      |            |       | 44.83

Nlocal:           24.5 ave          65 max           0 min
Histogram: 2 0 0 0 0 1 0 0 0 1
Nghost:            650 ave         726 max         496 min
Histogram: 1 0 0 0 0 0 0 1 0 2
Neighs:              0 ave           0 max           0 min
Histogram: 4 0 0 0 0 0 0 0 0 0
FullNghs:         3560 ave        9898 max           0 min
Histogram: 2 0 0 0 1 0 0 0 0 1

Total # of neighbors = 14240
Ave neighs/atom = 145.30612
Neighbor list builds = 0
Dangerous builds = 0
if '${NO_height} > 8.0' then quit
Generated 0 of 3 mixed pair_coeff terms from geometric mixing rule
Per MPI rank memory allocation (min/avg/max) = 3.242 | 4.076 | 4.363 Mbytes
     Temp         Step         PotEng         KinEng         TotEng    
 205.003             6500  -907.72817      2.5703756     -905.1578     
 207.11012           6510  -907.7546       2.5967952     -905.1578     
 204.41025           6520  -907.72074      2.5629436     -905.15779    
 198.20315           6530  -907.64289      2.4851175     -905.15777    
 191.49698           6540  -907.55877      2.4010339     -905.15774    
 188.1095            6550  -907.51627      2.358561      -905.15771    
 191.02072           6560  -907.55277      2.3950626     -905.15771    
 200.79916           6570  -907.67539      2.5176669     -905.15773    
 215.20353           6580  -907.85603      2.6982723     -905.15776    
 230.25213           6590  -908.04475      2.8869551     -905.15779    
 241.91642           6600  -908.19102      3.0332046     -905.15781    
 247.36611           6610  -908.25935      3.1015341     -905.15782    
 245.45172           6620  -908.23535      3.0775311     -905.15782    
 236.71117           6630  -908.12574      2.9679401     -905.1578     
 223.12663           6640  -907.95539      2.797614      -905.15778    
 207.64998           6650  -907.76131      2.603564      -905.15775    
 193.49985           6660  -907.58388      2.4261464     -905.15773    
 183.32728           6670  -907.45632      2.2986004     -905.15772    
 178.48807           6680  -907.39565      2.2379251     -905.15772    
 178.7536            6690  -907.39899      2.2412545     -905.15773    
 182.66814           6700  -907.44808      2.2903359     -905.15775    
 188.44247           6710  -907.52049      2.3627358     -905.15776    
 194.91674           6720  -907.60167      2.4439117     -905.15776    
 201.91124           6730  -907.68937      2.5316104     -905.15776    
 209.62102           6740  -907.78604      2.6282774     -905.15776    
 217.63855           6750  -907.88657      2.7288031     -905.15777    
 224.67312           6760  -907.97479      2.8170041     -905.15778    
 229.31963           6770  -908.03305      2.8752633     -905.15779    
 231.1164            6780  -908.05557      2.8977915     -905.15778    
 230.89977           6790  -908.05284      2.8950753     -905.15777    
 230.25827           6800  -908.04479      2.887032      -905.15775    
 230.62873           6810  -908.04943      2.891677      -905.15775    
 232.60272           6820  -908.07418      2.9164273     -905.15775    
 235.67863           6830  -908.11276      2.9549938     -905.15776    
 238.44622           6840  -908.14747      2.9896945     -905.15778    
 239.08305           6850  -908.15547      2.9976793     -905.15779    
 236.00172           6860  -908.11684      2.9590448     -905.1578     
 228.47811           6870  -908.02251      2.864712      -905.1578     
 217.09659           6880  -907.87979      2.7220078     -905.15778    
 203.83704           6890  -907.71351      2.5557565     -905.15776    
 191.62988           6900  -907.56044      2.4027002     -905.15773    
 183.34031           6910  -907.45649      2.2987637     -905.15772    
 180.51169           6920  -907.42102      2.2632978     -905.15773    
 182.62435           6930  -907.44753      2.2897868     -905.15774    
 187.53156           6940  -907.50908      2.3513146     -905.15776    
 192.85693           6950  -907.57586      2.4180853     -905.15777    
 197.27684           6960  -907.63127      2.4735032     -905.15777    
 200.8159            6970  -907.67564      2.5178768     -905.15776    
 204.26912           6980  -907.71893      2.5611741     -905.15776    
 208.41735           6990  -907.77094      2.6131855     -905.15775    
 213.52678           7000  -907.835        2.6772487     -905.15776    
Loop time of 30.2507 on 4 procs for 500 steps with 98 atoms

Performance: 0.143 ns/day, 168.060 hours/ns, 16.529 timesteps/s, 1.620 katom-step/s
98.8% CPU use with 4 MPI tasks x 1 OpenMP threads

MPI task timing breakdown:
Section |  min time  |  avg time  |  max time  |%varavg| %total
---------------------------------------------------------------
Pair    | 0.016939   | 11.082     | 30.034     | 372.2 | 36.63
Neigh   | 0          | 0          | 0          |   0.0 |  0.00
Comm    | 0.043901   | 4.0039     | 15.874     | 342.5 | 13.24
Output  | 0.026935   | 1.5478     | 3.0675     | 122.2 |  5.12
[...]
 193.50155          48070  -907.58392      2.4261677     -905.15775    
 207.67196          48080  -907.76161      2.6038396     -905.15777    
 221.66538          48090  -907.93708      2.7792924     -905.15778    
 233.49767          48100  -908.08544      2.9276485     -905.1578     
 241.47189          48110  -908.18544      3.0276311     -905.15781    
 244.34736          48120  -908.22149      3.0636844     -905.15781    
 241.76897          48130  -908.18916      3.031356      -905.1578     
 234.71582          48140  -908.10071      2.942922      -905.15778    
 225.40774          48150  -907.98398      2.826215      -905.15776    
 216.33186          48160  -907.87017      2.7124195     -905.15775    
 208.89658          48170  -907.77695      2.6191942     -905.15775    
 202.80883          48180  -907.70063      2.5428646     -905.15777    
 196.71952          48190  -907.62429      2.4665154     -905.15777    
 189.53067          48200  -907.53415      2.3763799     -905.15777    
 181.30665          48210  -907.43103      2.2732652     -905.15776    
 173.32646          48220  -907.33095      2.1732077     -905.15775    
 167.55162          48230  -907.25853      2.1008014     -905.15773    
 165.94333          48240  -907.23836      2.0806363     -905.15772    
 169.84292          48250  -907.28725      2.1295303     -905.15772    
 179.46208          48260  -907.40787      2.2501375     -905.15773    
 193.55704          48270  -907.58461      2.4268635     -905.15775    
 209.45953          48280  -907.78403      2.6262526     -905.15778    
 223.61013          48290  -907.96148      2.8036761     -905.15781    
 232.56664          48300  -908.0738       2.915975      -905.15783    
 234.24604          48310  -908.09486      2.9370316     -905.15782    
 228.91423          48320  -908.02798      2.8701803     -905.1578     
 219.26635          48330  -907.90698      2.7492128     -905.15777    
 209.21535          48340  -907.78094      2.623191      -905.15774    
 201.91663          48350  -907.68941      2.5316779     -905.15774    
 198.36766          48360  -907.64493      2.4871802     -905.15775    
 197.50997          48370  -907.63419      2.4764262     -905.15776    
 197.44269          48380  -907.63336      2.4755827     -905.15777    
 196.6376           48390  -907.62326      2.4654883     -905.15778    
 194.48343          48400  -907.59625      2.4384788     -905.15777    
 191.23564          48410  -907.55552      2.3977572     -905.15777    
 187.71367          48420  -907.51135      2.353598      -905.15776    
 184.98156          48430  -907.47709      2.3193421     -905.15775    
 184.05557          48440  -907.46547      2.3077318     -905.15774    
 185.58311          48450  -907.48463      2.3268845     -905.15774    
 189.55669          48460  -907.53446      2.3767062     -905.15775    
 195.21164          48470  -907.60537      2.4476092     -905.15776    
 201.20328          48480  -907.68051      2.5227338     -905.15777    
 206.09267          48490  -907.74182      2.5840381     -905.15778    
 208.99991          48500  -907.77827      2.6204899     -905.15778    
Loop time of 28.3462 on 4 procs for 500 steps with 98 atoms

Performance: 0.152 ns/day, 157.479 hours/ns, 17.639 timesteps/s, 1.729 katom-step/s
98.8% CPU use with 4 MPI tasks x 1 OpenMP threads

MPI task timing breakdown:
Section |  min time  |  avg time  |  max time  |%varavg| %total
---------------------------------------------------------------
Pair    | 0.01597    | 11.148     | 28.219     | 356.3 | 39.33
Neigh   | 0          | 0          | 0          |   0.0 |  0.00
Comm    | 0.024038   | 3.003      | 11.927     | 297.3 | 10.59
Output  | 0.046256   | 1.4793     | 2.9056     | 117.3 |  5.22
Modify  | 0.00020698 | 0.0013719  | 0.0026252  |   3.0 |  0.00
Other   |            | 12.71      |            |       | 44.86

Nlocal:           24.5 ave          64 max           0 min
Histogram: 2 0 0 0 0 1 0 0 0 1
Nghost:            650 ave         726 max         496 min
Histogram: 1 0 0 0 0 0 0 1 0 2
Neighs:              0 ave           0 max           0 min
Histogram: 4 0 0 0 0 0 0 0 0 0
FullNghs:       3429.5 ave        9507 max           0 min
Histogram: 2 0 0 0 1 0 0 0 0 1

Total # of neighbors = 13718
Ave neighs/atom = 139.97959
Neighbor list builds = 0
Dangerous builds = 0
if '${NO_height} > 8.0' then quit
Generated 0 of 3 mixed pair_coeff terms from geometric mixing rule
Per MPI rank memory allocation (min/avg/max) = 3.246 | 4.083 | 4.374 Mbytes
     Temp         Step         PotEng         KinEng         TotEng    
 208.99991          48500  -907.77827      2.6204899     -905.15778    
 210.02797          48510  -907.79115      2.6333799     -905.15777    
 210.02174          48520  -907.79107      2.6333018     -905.15777    
 209.71752          48530  -907.78726      2.6294873     -905.15777    
 209.02393          48540  -907.77857      2.620791      -905.15778    
 207.15717          48550  -907.75517      2.5973851     -905.15778    
 203.48899          48560  -907.70917      2.5513926     -905.15778    
 198.25171          48570  -907.64349      2.4857263     -905.15777    
 192.51562          48580  -907.57156      2.4138059     -905.15776    
 187.63463          48590  -907.51036      2.3526069     -905.15775    
 184.68311          48600  -907.47334      2.3156001     -905.15774    
 184.18421          48610  -907.46709      2.3093448     -905.15774    
 186.10153          48620  -907.49113      2.3333846     -905.15775    
 189.93187          48630  -907.53917      2.3814102     -905.15776    
 194.80822          48640  -907.60032      2.4425511     -905.15776    
 199.63435          48650  -907.66084      2.5030622     -905.15777    
 203.31638          48660  -907.70701      2.5492283     -905.15778    
 205.12134          48670  -907.72964      2.5718594     -905.15778    
 205.10754          48680  -907.72946      2.5716863     -905.15777    
 204.36825          48690  -907.72017      2.562417      -905.15776    
 204.62294          48700  -907.72336      2.5656103     -905.15775    
 207.08841          48710  -907.75427      2.5965229     -905.15775    
 211.4382           48720  -907.80883      2.6510616     -905.15777    
 215.80378          48730  -907.86358      2.7057983     -905.15778    
 217.90588          48740  -907.88995      2.7321549     -905.15779    
 216.40589          48750  -907.87114      2.7133477     -905.15779    
 211.45818          48760  -907.80909      2.6513121     -905.15778    
 204.32366          48770  -907.71963      2.5618578     -905.15777    
 196.59712          48780  -907.62274      2.4649807     -905.15776    
 189.57466          48790  -907.53468      2.3769314     -905.15775    
 184.00621          48800  -907.46486      2.3071129     -905.15775    
 180.1992           48810  -907.41713      2.2593798     -905.15775    
 178.23329          48820  -907.39248      2.2347307     -905.15775    
 178.07544          48830  -907.3905       2.2327515     -905.15775    
 179.60083          48840  -907.40963      2.2518773     -905.15775    
 182.67674          48850  -907.4482       2.2904437     -905.15775    
 187.39723          48860  -907.50738      2.3496303     -905.15775    
 194.27807          48870  -907.59365      2.4359039     -905.15774    
 203.98167          48880  -907.71531      2.5575699     -905.15774    
 216.41882          48890  -907.87127      2.7135099     -905.15776    
 229.86024          48900  -908.03982      2.8820415     -905.15778    
 241.03671          48910  -908.17999      3.0221747     -905.15781    
 246.45409          48920  -908.24793      3.0900991     -905.15783    
 244.03846          48930  -908.21764      3.0598113     -905.15783    
 234.01017          48940  -908.09188      2.9340743     -905.15781    
 218.68125          48950  -907.89965      2.7418767     -905.15778    
 201.59794          48960  -907.68543      2.5276821     -905.15775    
 186.51438          48970  -907.49628      2.3385609     -905.15772    
 176.45613          48980  -907.37016      2.2124482     -905.15771    
 172.99775          48990  -907.3268       2.1690863     -905.15771    
 175.86064          49000  -907.36271      2.2049818     -905.15773    
Loop time of 28.7295 on 4 procs for 500 steps with 98 atoms

Performance: 0.150 ns/day, 159.608 hours/ns, 17.404 timesteps/s, 1.706 katom-step/s
98.6% CPU use with 4 MPI tasks x 1 OpenMP threads

MPI task timing breakdown:
Section |  min time  |  avg time  |  max time  |%varavg| %total
---------------------------------------------------------------
Pair    | 0.018917   | 11.245     | 28.57      | 358.6 | 39.14
Neigh   | 0          | 0          | 0          |   0.0 |  0.00
Comm    | 0.026942   | 3.0923     | 12.278     | 301.6 | 10.76
Output  | 0.028491   | 1.4671     | 2.8991     | 118.2 |  5.11
Modify  | 0.00023083 | 0.0016669  | 0.0026484  |   2.3 |  0.01
Other   |            | 12.92      |            |       | 44.98

Nlocal:           24.5 ave          64 max           0 min
Histogram: 2 0 0 0 0 1 0 0 0 1
Nghost:            653 ave         729 max         499 min
Histogram: 1 0 0 0 0 0 0 1 0 2
Neighs:              0 ave           0 max           0 min
Histogram: 4 0 0 0 0 0 0 0 0 0
FullNghs:       3433.5 ave        9516 max           0 min
Histogram: 2 0 0 0 1 0 0 0 0 1

Total # of neighbors = 13734
Ave neighs/atom = 140.14286
Neighbor list builds = 0
Dangerous builds = 0
if '${NO_height} > 8.0' then quit
Generated 0 of 3 mixed pair_coeff terms from geometric mixing rule
Per MPI rank memory allocation (min/avg/max) = 3.246 | 4.083 | 4.374 Mbytes
     Temp         Step         PotEng         KinEng         TotEng    
 175.86064          49000  -907.36271      2.2049818     -905.15773    
 182.95321          49010  -907.45167      2.2939101     -905.15776    
 190.96371          49020  -907.55213      2.3943477     -905.15778    
 196.50662          49030  -907.62165      2.463846      -905.1578     
 197.5535           49040  -907.63477      2.476972      -905.1578     
 194.5165           49050  -907.59667      2.4388934     -905.15778    
 190.21426          49060  -907.5427       2.3849509     -905.15774    
 188.44355          49070  -907.52047      2.3627494     -905.15772    
 191.91932          49080  -907.56405      2.4063293     -905.15772    
 200.96395          49090  -907.67747      2.5197331     -905.15773    
 213.70184          49100  -907.8372       2.6794437     -905.15776    
 227.24613          49110  -908.00704      2.8492651     -905.15778    
 238.82678          49120  -908.15226      2.994466      -905.1578     
 246.37649          49130  -908.24693      3.0891261     -905.1578     
 248.746            49140  -908.27664      3.1188355     -905.15781    
 245.78512          49150  -908.23951      3.0817113     -905.1578     
 238.33871          49160  -908.14613      2.9883465     -905.15779    
 228.08347          49170  -908.01753      2.859764      -905.15777    
 217.11603          49180  -907.88001      2.7222516     -905.15775    
 207.34644          49190  -907.7575       2.5997582     -905.15775    
 199.94412          49200  -907.66469      2.5069462     -905.15775    
 195.12105          49210  -907.60422      2.4464733     -905.15775    
 192.37823          49220  -907.56984      2.4120833     -905.15776    
 191.06147          49230  -907.55333      2.3955734     -905.15776    
 190.78588          49240  -907.54988      2.392118      -905.15776    
 191.31964          49250  -907.55658      2.3988105     -905.15776    
 192.12089          49260  -907.56663      2.4088567     -905.15777    
 192.27576          49270  -907.56858      2.4107985     -905.15778    
 191.18716          49280  -907.55492      2.3971493     -905.15777    
 189.37567          49290  -907.53219      2.3744364     -905.15776    
 188.47803          49300  -907.52092      2.3631816     -905.15774    
 190.34697          49310  -907.54435      2.3866148     -905.15773    
 195.97711          49320  -907.61494      2.4572069     -905.15774    
 204.95932          49330  -907.72758      2.5698279     -905.15775    
 215.64185          49340  -907.86154      2.703768      -905.15777    
 225.75069          49350  -907.9883       2.8305149     -905.15779    
 233.08981          49360  -908.08033      2.9225346     -905.1578     
 236.04596          49370  -908.1174       2.9595994     -905.1578     
 233.83436          49380  -908.08967      2.9318699     -905.1578     
 226.61204          49390  -907.99911      2.8413148     -905.1578     
 215.6025           49400  -907.86105      2.7032746     -905.15778    
 203.15815          49410  -907.705        2.5472444     -905.15775    
 192.41726          49420  -907.5703       2.4125727     -905.15773    
 186.26396          49430  -907.49314      2.3354211     -905.15772    
 185.94258          49440  -907.48912      2.3313916     -905.15773    
 190.35315          49450  -907.54444      2.3866924     -905.15775    
 196.72614          49460  -907.62437      2.4665984     -905.15777    
 202.20292          49470  -907.69305      2.5352676     -905.15779    
 205.1589           49480  -907.73012      2.5723303     -905.15779    
 205.5777           49490  -907.73536      2.5775813     -905.15778    
 204.63939          49500  -907.72358      2.5658165     -905.15776    
Loop time of 28.6436 on 4 procs for 500 steps with 98 atoms

Performance: 0.151 ns/day, 159.131 hours/ns, 17.456 timesteps/s, 1.711 katom-step/s
98.8% CPU use with 4 MPI tasks x 1 OpenMP threads

MPI task timing breakdown:
Section |  min time  |  avg time  |  max time  |%varavg| %total
---------------------------------------------------------------
Pair    | 0.016911   | 11.228     | 28.494     | 358.1 | 39.20
Neigh   | 0          | 0          | 0          |   0.0 |  0.00
Comm    | 0.0094582  | 3.053      | 12.174     | 301.4 | 10.66
Output  | 0.067824   | 1.5053     | 2.9356     | 116.6 |  5.26
Modify  | 0.00025884 | 0.0013921  | 0.0026182  |   3.0 |  0.00
Other   |            | 12.86      |            |       | 44.88

Nlocal:           24.5 ave          64 max           0 min
Histogram: 2 0 0 0 0 1 0 0 0 1
Nghost:            650 ave         726 max         496 min
Histogram: 1 0 0 0 0 0 0 1 0 2
Neighs:              0 ave           0 max           0 min
Histogram: 4 0 0 0 0 0 0 0 0 0
FullNghs:       3457.5 ave        9590 max           0 min
Histogram: 2 0 0 0 1 0 0 0 0 1

Total # of neighbors = 13830
Ave neighs/atom = 141.12245
Neighbor list builds = 0
Dangerous builds = 0
if '${NO_height} > 8.0' then quit
Generated 0 of 3 mixed pair_coeff terms from geometric mixing rule
Per MPI rank memory allocation (min/avg/max) = 3.246 | 4.083 | 4.374 Mbytes
     Temp         Step         PotEng         KinEng         TotEng    
 204.63939          49500  -907.72358      2.5658165     -905.15776    
 204.01395          49510  -907.71572      2.5579747     -905.15775    
 205.19225          49520  -907.73049      2.5727485     -905.15774    
 208.95734          49530  -907.7777       2.619956      -905.15774    
 215.02155          49540  -907.85375      2.6959906     -905.15776    
 221.92508          49550  -907.94032      2.7825486     -905.15777    
 227.34614          49560  -908.00831      2.8505191     -905.15779    
 228.87534          49570  -908.0275       2.8696925     -905.15781    
 225.09448          49580  -907.98009      2.8222873     -905.1578     
 216.52832          49590  -907.87267      2.7148827     -905.15778    
 205.80742          49600  -907.73822      2.5804616     -905.15775    
 196.591            49610  -907.62264      2.464904      -905.15773    
 191.69894          49620  -907.56129      2.4035662     -905.15773    
 191.72307          49630  -907.56161      2.4038687     -905.15774    
 195.09398          49640  -907.60389      2.446134      -905.15776    
 199.39335          49650  -907.65782      2.5000405     -905.15778    
 202.77195          49660  -907.70018      2.5424022     -905.15778    
 204.54555          49670  -907.72242      2.56464       -905.15778    
 204.98661          49680  -907.72794      2.5701701     -905.15777    
 204.80464          49690  -907.72565      2.5678885     -905.15776    
 204.673            49700  -907.724        2.566238      -905.15776    
 204.98005          49710  -907.72785      2.5700878     -905.15776    
 205.8027           49720  -907.73816      2.5804025     -905.15776    
 206.96303          49730  -907.75272      2.5949509     -905.15776    
 208.06823          49740  -907.76658      2.6088081     -905.15777    
 208.58611          49750  -907.77307      2.6153015     -905.15777    
 208.09509          49760  -907.76692      2.609145      -905.15777    
 206.68639          49770  -907.74925      2.5914823     -905.15777    
 205.14767          49780  -907.72995      2.5721896     -905.15776    
 204.50006          49790  -907.72182      2.5640696     -905.15776    
 205.07606          49800  -907.72905      2.5712916     -905.15776    
 206.02621          49810  -907.74098      2.5832048     -905.15777    
 205.88611          49820  -907.73923      2.5814482     -905.15778    
 203.75583          49830  -907.71252      2.5547383     -905.15778    
 200.01491          49840  -907.6656       2.5078337     -905.15777    
 196.05111          49850  -907.61589      2.4581347     -905.15775    
 193.42992          49860  -907.58301      2.4252697     -905.15774    
 193.2187           49870  -907.58036      2.4226213     -905.15774    
 195.82576          49880  -907.61305      2.4553092     -905.15774    
 201.23927          49890  -907.68093      2.5231851     -905.15774    
 209.2513           49900  -907.78139      2.6236418     -905.15775    
 219.32394          49910  -907.90769      2.7499348     -905.15776    
 230.22103          49920  -908.04434      2.8865651     -905.15777    
 239.89218          49930  -908.16562      3.0078243     -905.15779    
 245.99339          49940  -908.24213      3.0843227     -905.15781    
 246.96663          49950  -908.25433      3.0965254     -905.15781    
 242.96387          49960  -908.20413      3.0463379     -905.15779    
 235.73976          49970  -908.11353      2.9557603     -905.15777    
 227.48613          49980  -908.01004      2.8522743     -905.15776    
 219.61393          49990  -907.91133      2.7535709     -905.15776    
 212.43708          50000  -907.82135      2.6635858     -905.15776    
Loop time of 28.792 on 4 procs for 500 steps with 98 atoms

Performance: 0.150 ns/day, 159.956 hours/ns, 17.366 timesteps/s, 1.702 katom-step/s
98.6% CPU use with 4 MPI tasks x 1 OpenMP threads

MPI task timing breakdown:
Section |  min time  |  avg time  |  max time  |%varavg| %total
---------------------------------------------------------------
Pair    | 0.01869    | 11.255     | 28.607     | 358.9 | 39.09
Neigh   | 0          | 0          | 0          |   0.0 |  0.00
Comm    | 0.027955   | 3.1006     | 12.305     | 301.8 | 10.77
Output  | 0.041255   | 1.4658     | 2.8898     | 117.6 |  5.09
Modify  | 0.0003364  | 0.0016449  | 0.0025225  |   2.2 |  0.01
Other   |            | 12.97      |            |       | 45.05

Nlocal:           24.5 ave          64 max           0 min
Histogram: 2 0 0 0 0 1 0 0 0 1
Nghost:            650 ave         726 max         496 min
Histogram: 1 0 0 0 0 0 0 1 0 2
Neighs:              0 ave           0 max           0 min
Histogram: 4 0 0 0 0 0 0 0 0 0
FullNghs:         3496 ave        9672 max           0 min
Histogram: 2 0 0 0 1 0 0 0 0 1

Total # of neighbors = 13984
Ave neighs/atom = 142.69388
Neighbor list builds = 0
Dangerous builds = 0
if '${NO_height} > 8.0' then quit


write_restart restart_file.final           # Save a restart file at the end of the simulation#
System init for write_restart ...
Generated 0 of 3 mixed pair_coeff terms from geometric mixing rule


Total wall time: 0:50:04
