LAMMPS (29 Aug 2024)
  using 1 OpenMP thread(s) per MPI task
Loaded 1 plugins from /home/samuel.del-fre/.conda/envs/deepmd/lib/deepmd_lmp
# Initialization
units           metal
atom_style      atomic
boundary        p p p
read_data       lmp_geo.txt
Reading data file ...
  triclinic box = (0 0 0) to (9.865464 8.543742 26.727274) with tilt (-4.932733 0 0)
WARNING: Triclinic box skew is large. LAMMPS will run inefficiently. (src/domain.cpp:221)
  1 by 1 by 4 MPI processor grid
  reading atoms ...
  98 atoms
  reading velocities ...
  98 velocities
  read_data CPU = 0.031 seconds

# Atoms
mass 1 14.0067
mass 2 15.999
mass 3 12.011


# Define interatomic potential
pair_style      deepmd graph.pb
Summary of lammps deepmd module ...
  >>> Info of deepmd-kit:
  installed to:       /home/samuel.del-fre/.conda/envs/deepmd
  source:             
  source branch:      HEAD
  source commit:      8b3dc08
  source commit at:   2025-06-11 13:00:46 +0200
  support model ver.: 1.1 
  build variant:      cpu
  build with tf inc:  /home/samuel.del-fre/.conda/envs/deepmd/lib/python3.12/site-packages/tensorflow/include;/home/samuel.del-fre/.conda/envs/deepmd/lib/python3.12/site-packages/tensorflow/../../../../include
  build with tf lib:  /home/samuel.del-fre/.conda/envs/deepmd/lib/python3.12/site-packages/tensorflow/libtensorflow_cc.so.2
  build with pt lib:  torch;torch_library;/home/samuel.del-fre/.conda/envs/deepmd/lib/python3.12/site-packages/torch/lib/libc10.so
  set tf intra_op_parallelism_threads: 4
  set tf inter_op_parallelism_threads: 1
  >>> Info of lammps module:
  use deepmd-kit at:  /home/samuel.del-fre/.conda/envs/deepmdpair_coeff      * *

# Settings
neighbor        2.0 bin
neigh_modify    delay 0 every 1 check yes

# Define compute
#compute         myTemp all temp

# Initialize velocities

# Group definitions
group           first_layer id 3:34        # Define the first layer of atoms to remain immobilized
32 atoms in group first_layer
group           third_layer id 67:98       # Define the third layer of atoms for monitoring z-height
32 atoms in group third_layer
group           mobile_layers subtract all first_layer  # Define the mobile atoms by excluding the first layer
66 atoms in group mobile_layers
group           NO_mol id 1 2              # Define the NO molecule (atoms 1 and 2)
2 atoms in group NO_mol

# Temperature of the System
compute         mobileTemp mobile_layers temp  # Compute temperature for mobile atoms only

# Calculate z-coordinates for specific groups
compute         NO_z_avg NO_mol reduce ave z             # Average z-coordinate of the NO molecule
compute         HOPG_z_avg third_layer reduce ave z      # Average z-coordinate of the third layer

# Short run to initialize computes
run             0                                       # Perform a 0-step run to initialize computes

CITE-CITE-CITE-CITE-CITE-CITE-CITE-CITE-CITE-CITE-CITE-CITE-CITE

Your simulation uses code contributions which should be cited:

- Type Label Framework: https://doi.org/10.1021/acs.jpcb.3c08419

@Article{Gissinger24,
 author = {Jacob R. Gissinger, Ilia Nikiforov, Yaser Afshar, Brendon Waters, Moon-ki Choi, Daniel S. Karls, Alexander Stukowski, Wonpil Im, Hendrik Heinz, Axel Kohlmeyer, and Ellad B. Tadmor},
 title = {Type Label Framework for Bonded Force Fields in LAMMPS},
 journal = {J. Phys. Chem. B},
 year =    2024,
 volume =  128,
 number =  13,
 pages =   {3282–-3297}
}

- USER-DEEPMD package:

@article{Wang_ComputPhysCommun_2018_v228_p178,
  author = {Wang, Han and Zhang, Linfeng and Han, Jiequn and E, Weinan},
  doi = {10.1016/j.cpc.2018.03.016},
  url = {https://doi.org/10.1016/j.cpc.2018.03.016},
  year = 2018,
  month = {jul},
  publisher = {Elsevier {BV}},
  volume = 228,
  journal = {Comput. Phys. Commun.},
  title = {{DeePMD-kit: A deep learning package for many-body potential energy representation and molecular dynamics}},
  pages = {178--184}
}
@article{Zeng_JChemPhys_2023_v159_p054801,
  title  = {{DeePMD-kit v2: A software package for deep potential models}},
  author =   {Jinzhe Zeng and Duo Zhang and Denghui Lu and Pinghui Mo and Zeyu Li
         and Yixiao Chen and Mari{\'a}n Rynik and Li'ang Huang and Ziyao Li and 
         Shaochen Shi and Yingze Wang and Haotian Ye and Ping Tuo and Jiabin
         Yang and Ye Ding and Yifan Li and Davide Tisi and Qiyu Zeng and Han 
         Bao and Yu Xia and Jiameng Huang and Koki Muraoka and Yibo Wang and 
         Junhan Chang and Fengbo Yuan and Sigbj{\o}rn L{\o}land Bore and Chun
         Cai and Yinnian Lin and Bo Wang and Jiayan Xu and Jia-Xin Zhu and 
         Chenxing Luo and Yuzhi Zhang and Rhys E A Goodall and Wenshuo Liang
         and Anurag Kumar Singh and Sikai Yao and Jingchao Zhang and Renata
         Wentzcovitch and Jiequn Han and Jie Liu and Weile Jia and Darrin M
         York and Weinan E and Roberto Car and Linfeng Zhang and Han Wang},
  journal =  {J. Chem. Phys.},
  volume =   159,
  issue =    5,  
  year =    2023,
  pages  =   054801,
  doi =      {10.1063/5.0155600},
}
@Article{Zeng_JChemTheoryComput_2025_v21_p4375,
  author =   {Jinzhe Zeng and Duo Zhang and Anyang Peng and Xiangyu Zhang and Sensen
             He and Yan Wang and Xinzijian Liu and Hangrui Bi and Yifan Li and Chun
             Cai and Chengqian Zhang and Yiming Du and Jia-Xin Zhu and Pinghui Mo
             and Zhengtao Huang and Qiyu Zeng and Shaochen Shi and Xuejian Qin and
             Zhaoxi Yu and Chenxing Luo and Ye Ding and Yun-Pei Liu and Ruosong Shi
             and Zhenyu Wang and Sigbj{\o}rn L{\o}land Bore and Junhan Chang and
             Zhe Deng and Zhaohan Ding and Siyuan Han and Wanrun Jiang and Guolin
             Ke and Zhaoqing Liu and Denghui Lu and Koki Muraoka and Hananeh Oliaei
             and Anurag Kumar Singh and Haohui Que and Weihong Xu and Zhangmancang
             Xu and Yong-Bin Zhuang and Jiayu Dai and Timothy J. Giese and Weile
             Jia and Ben Xu and Darrin M. York and Linfeng Zhang and Han Wang},
    title =    {{DeePMD-kit v3: A Multiple-Backend Framework for Machine Learning
             Potentials}},
  journal =  {J. Chem. Theory Comput.},
  year =     2025,
  volume =   21,
  number =   9,
  pages =    {4375--4385},
  doi =      {10.1021/acs.jctc.5c00340},
}

CITE-CITE-CITE-CITE-CITE-CITE-CITE-CITE-CITE-CITE-CITE-CITE-CITE

WARNING: No fixes with time integration, atoms won't move (src/verlet.cpp:60)
Generated 0 of 3 mixed pair_coeff terms from geometric mixing rule
Neighbor list info ...
  update: every = 1 steps, delay = 0 steps, check = yes
  max neighbors/atom: 2000, page size: 100000
  master list distance cutoff = 7.5
  ghost atom cutoff = 7.5
  binsize = 3.75, bins = 4 3 8
  1 neighbor lists, perpetual/occasional/extra = 1 0 0
  (1) pair deepmd, perpetual
      attributes: full, newton on
      pair build: full/bin/atomonly
      stencil: full/bin/3d
      bin: standard
Per MPI rank memory allocation (min/avg/max) = 2.982 | 3.069 | 3.107 Mbytes
   Step          Temp          E_pair         E_mol          TotEng         Press     
         0   216.31546     -906.82397      0             -904.11176      22462.916    
Loop time of 3.075e-06 on 4 procs for 0 steps with 98 atoms

32.5% CPU use with 4 MPI tasks x 1 OpenMP threads

MPI task timing breakdown:
Section |  min time  |  avg time  |  max time  |%varavg| %total
---------------------------------------------------------------
Pair    | 0          | 0          | 0          |   0.0 |  0.00
Neigh   | 0          | 0          | 0          |   0.0 |  0.00
Comm    | 0          | 0          | 0          |   0.0 |  0.00
Output  | 0          | 0          | 0          |   0.0 |  0.00
Modify  | 0          | 0          | 0          |   0.0 |  0.00
Other   |            | 3.075e-06  |            |       |100.00

Nlocal:           24.5 ave          64 max           0 min
Histogram: 2 0 0 0 0 1 0 0 0 1
Nghost:         656.75 ave         744 max         500 min
Histogram: 1 0 0 0 0 0 0 1 1 1
Neighs:              0 ave           0 max           0 min
Histogram: 4 0 0 0 0 0 0 0 0 0
FullNghs:       3466.5 ave        9704 max           0 min
Histogram: 2 0 0 0 1 0 0 0 0 1

Total # of neighbors = 13866
Ave neighs/atom = 141.4898
Neighbor list builds = 0
Dangerous builds = 0

# Compute the difference and absolute value
variable        NO_height equal abs(c_NO_z_avg-c_HOPG_z_avg)  # Absolute height of NO molecule above the third layer

# --- after read_data ---
# Immobilization and dynamics
fix             fixed_layer first_layer setforce 0.0 0.0 0.0  # Fix the first layer atoms in place (no forces applied)
fix             1 all nve
timestep        0.0001

# Output settings
thermo          10
thermo_style    custom temp step pe ke etotal
dump            10 all custom 10 nve.lammpstrj id type x y z vx vy vz fx fy fz


# Run the simulation
timestep        0.0001  # This sets the timestep to 0.1 fs
run             50000 every 500 "if '${NO_height} > 8.0' then quit"  # Stop if NO molecule height exceeds 10 A
Generated 0 of 3 mixed pair_coeff terms from geometric mixing rule
Per MPI rank memory allocation (min/avg/max) = 2.982 | 3.069 | 3.107 Mbytes
     Temp         Step         PotEng         KinEng         TotEng    
 216.31546              0  -906.82397      2.7122139     -904.11176    
 217.38121             10  -906.83734      2.7255765     -904.11176    
 226.46558             20  -906.95126      2.8394784     -904.11178    
 241.10496             30  -907.13484      3.0230304     -904.11181    
 257.37745             40  -907.3389       3.2270588     -904.11184    
 271.11725             50  -907.5112       3.3993316     -904.11187    
 279.12334             60  -907.6116       3.4997137     -904.11188    
 280.09187             70  -907.62373      3.5118575     -904.11187    
 275.11431             80  -907.5613       3.4494476     -904.11185    
 267.40531             90  -907.46461      3.3527904     -904.11182    
 260.97029            100  -907.3839       3.2721066     -904.11179    
 258.70073            110  -907.35544      3.2436503     -904.11179    
 261.07491            120  -907.38522      3.2734184     -904.11181    
 266.287              130  -907.4506       3.3387687     -904.11183    
 271.4934             140  -907.5159       3.4040478     -904.11185    
 274.03563            150  -907.54779      3.4359228     -904.11186    
 271.96737            160  -907.52186      3.4099905     -904.11187    
 264.19567            170  -907.42442      3.3125472     -904.11187    
 250.65926            180  -907.25469      3.1428244     -904.11186    
 232.64207            190  -907.02876      2.9169207     -904.11184    
 212.90773            200  -906.7813       2.6694869     -904.11181    
 195.21395            210  -906.55942      2.4476382     -904.11178    
 183.28534            220  -906.40983      2.2980745     -904.11176    
 179.64247            230  -906.36416      2.2523994     -904.11176    
 184.77978            240  -906.42858      2.3168121     -904.11177    
 197.19711            250  -906.58429      2.4725035     -904.11179    
 214.31255            260  -906.79891      2.6871009     -904.11181    
 233.48452            270  -907.03931      2.9274835     -904.11183    
 252.32845            280  -907.2756       3.1637531     -904.11185    
 268.50369            290  -907.47843      3.3665621     -904.11187    
 279.75151            300  -907.61947      3.5075899     -904.11188    
 284.54634            310  -907.67959      3.5677086     -904.11188    
 282.90038            320  -907.65893      3.5470712     -904.11186    
 276.49291            330  -907.57857      3.4667328     -904.11184    
 267.87642            340  -907.47052      3.3586973     -904.11182    
 259.38976            350  -907.3641       3.2522895     -904.11181    
 252.53024            360  -907.27809      3.1662833     -904.11181    
 247.86729            370  -907.21963      3.1078181     -904.11181    
 245.1475             380  -907.18553      3.0737167     -904.11182    
 243.40767            390  -907.16373      3.0519024     -904.11183    
 241.15366            400  -907.13548      3.023641      -904.11184    
 236.72367            410  -907.07995      2.9680967     -904.11185    
 228.90335            420  -906.9819       2.8700437     -904.11185    
 217.76872            430  -906.84227      2.7304352     -904.11184    
 205.33775            440  -906.68638      2.5745728     -904.11181    
 195.26345            450  -906.56004      2.4482588     -904.11178    
 191.36932            460  -906.51119      2.3994333     -904.11176    
 195.79116            470  -906.56664      2.4548754     -904.11177    
 207.9512             480  -906.71913      2.6073408     -904.11179    
 225.03822            490  -906.9334       2.8215818     -904.11182    
 243.45613            500  -907.16435      3.0525099     -904.11184    
Loop time of 34.1643 on 4 procs for 500 steps with 98 atoms

Performance: 0.126 ns/day, 189.802 hours/ns, 14.635 timesteps/s, 1.434 katom-step/s
98.4% CPU use with 4 MPI tasks x 1 OpenMP threads

MPI task timing breakdown:
Section |  min time  |  avg time  |  max time  |%varavg| %total
---------------------------------------------------------------
Pair    | 0.036667   | 13.998     | 33.718     | 354.7 | 40.97
Neigh   | 0          | 0          | 0          |   0.0 |  0.00
Comm    | 0.2645     | 12.474     | 29.993     | 328.9 | 36.51
Output  | 0.046854   | 0.81688    | 3.1249     | 147.4 |  2.39
Modify  | 0.00093653 | 0.0021653  | 0.0027472  |   1.6 |  0.01
Other   |            | 6.873      |            |       | 20.12

Nlocal:           24.5 ave          64 max           0 min
Histogram: 2 0 0 0 0 1 0 0 0 1
Nghost:         656.75 ave         744 max         500 min
Histogram: 1 0 0 0 0 0 0 1 1 1
Neighs:              0 ave           0 max           0 min
Histogram: 4 0 0 0 0 0 0 0 0 0
FullNghs:       3466.5 ave        9704 max           0 min
Histogram: 2 0 0 0 1 0 0 0 0 1

Total # of neighbors = 13866
Ave neighs/atom = 141.4898
Neighbor list builds = 0
Dangerous builds = 0
if '${NO_height} > 8.0' then quit
Generated 0 of 3 mixed pair_coeff terms from geometric mixing rule
Per MPI rank memory allocation (min/avg/max) = 3.241 | 4.075 | 4.362 Mbytes
     Temp         Step         PotEng         KinEng         TotEng    
 243.45613            500  -907.16435      3.0525099     -904.11184    
 260.14283            510  -907.37359      3.2617317     -904.11186    
 273.16523            520  -907.53687      3.4250096     -904.11186    
 281.6867             530  -907.64371      3.5318538     -904.11186    
 285.64207            540  -907.6933       3.5814471     -904.11186    
 285.38081            550  -907.69002      3.5781713     -904.11185    
 281.41069            560  -907.64024      3.5283931     -904.11185    
 274.26201            570  -907.55061      3.4387613     -904.11184    
 264.4386             580  -907.42743      3.315593      -904.11184    
 252.46892            590  -907.27735      3.1655144     -904.11184    
 239.11384            600  -907.10989      2.9980652     -904.11183    
 225.68195            610  -906.94146      2.8296531     -904.11181    
 214.16388            620  -906.79703      2.6852369     -904.11179    
 206.75493            630  -906.70412      2.5923417     -904.11178    
 204.71914            640  -906.6786       2.5668165     -904.11179    
 207.40434            650  -906.71229      2.6004842     -904.11181    
 212.44751            660  -906.77555      2.6637166     -904.11183    
 217.1936             670  -906.83507      2.7232242     -904.11184    
 220.25898            680  -906.8735       2.7616587     -904.11184    
 222.17235            690  -906.89747      2.785649      -904.11182    
 224.84676            700  -906.93098      2.8191812     -904.1118     
 230.43478            710  -907.00104      2.8892452     -904.11179    
 240.20298            720  -907.12352      3.0117211     -904.1118     
 253.81821            730  -907.29424      3.1824322     -904.11181    
 269.33077            740  -907.48877      3.3769323     -904.11184    
 283.82373            750  -907.67051      3.5586483     -904.11186    
 294.28811            760  -907.80173      3.6898532     -904.11188    
 298.34336            770  -907.85259      3.7406989     -904.11189    
 294.81515            780  -907.80835      3.6964613     -904.11189    
 284.21531            790  -907.67542      3.5635581     -904.11187    
 268.90364            800  -907.48341      3.3715768     -904.11184    
 252.53291            810  -907.27812      3.1663167     -904.11181    
 238.68421            820  -907.10447      2.9926785     -904.11179    
 229.48648            830  -906.98914      2.8773552     -904.11179    
 225.2827             840  -906.93644      2.8246472     -904.11179    
 225.37801            850  -906.93764      2.8258422     -904.1118     
 228.89787            860  -906.98178      2.8699751     -904.1118     
 234.98725            870  -907.05814      2.9463251     -904.11181    
 242.51685            880  -907.15256      3.040733      -904.11182    
 249.96743            890  -907.24599      3.1341502     -904.11184    
 255.74942            900  -907.31849      3.2066461     -904.11185    
 258.67219            910  -907.35514      3.2432924     -904.11185    
 258.338              920  -907.35095      3.2391023     -904.11185    
 255.29301            930  -907.31276      3.2009235     -904.11184    
 250.79025            940  -907.25629      3.1444669     -904.11183    
 246.29489            950  -907.19992      3.088103      -904.11182    
 242.976              960  -907.15831      3.04649       -904.11182    
 241.45906            970  -907.13929      3.0274702     -904.11182    
 241.89613            980  -907.14477      3.0329503     -904.11182    
 243.98824            990  -907.17101      3.0591817     -904.11183    
 246.74155           1000  -907.20554      3.0937034     -904.11184    
Loop time of 34.8402 on 4 procs for 500 steps with 98 atoms

Performance: 0.124 ns/day, 193.557 hours/ns, 14.351 timesteps/s, 1.406 katom-step/s
98.1% CPU use with 4 MPI tasks x 1 OpenMP threads

MPI task timing breakdown:
Section |  min time  |  avg time  |  max time  |%varavg| %total
---------------------------------------------------------------
Pair    | 0.032776   | 14.092     | 34.077     | 371.2 | 40.45
Neigh   | 0          | 0          | 0          |   0.0 |  0.00
Comm    | 0.14515    | 8.7102     | 18.223     | 260.4 | 25.00
Output  | 0.089347   | 1.2783     | 3.3111     | 115.1 |  3.67
Modify  | 0.0006011  | 0.0021436  | 0.0031367  |   2.1 |  0.01
Other   |            | 10.76      |            |       | 30.88

Nlocal:           24.5 ave          64 max           0 min
Histogram: 2 0 0 0 0 1 0 0 0 1
Nghost:         656.75 ave         744 max         501 min
Histogram: 1 0 0 0 0 0 1 0 1 1
Neighs:              0 ave           0 max           0 min
Histogram: 4 0 0 0 0 0 0 0 0 0
FullNghs:       3470.5 ave        9707 max           0 min
Histogram: 2 0 0 0 1 0 0 0 0 1

Total # of neighbors = 13882
Ave neighs/atom = 141.65306
Neighbor list builds = 0
Dangerous builds = 0
if '${NO_height} > 8.0' then quit
Generated 0 of 3 mixed pair_coeff terms from geometric mixing rule
Per MPI rank memory allocation (min/avg/max) = 3.241 | 4.075 | 4.362 Mbytes
     Temp         Step         PotEng         KinEng         TotEng    
 246.74155           1000  -907.20554      3.0937034     -904.11184    
 248.43053           1010  -907.22673      3.1148802     -904.11185    
 247.33988           1020  -907.21306      3.1012054     -904.11186    
 242.9456            1030  -907.15795      3.0461088     -904.11185    
 236.55424           1040  -907.07779      2.9659725     -904.11182    
 230.8754            1050  -907.00657      2.8947699     -904.1118     
 228.80163           1060  -906.98055      2.8687684     -904.11178    
 232.1268            1070  -907.02224      2.9104601     -904.11178    
 240.86987           1080  -907.13188      3.0200828     -904.11179    
 253.37007           1090  -907.28863      3.1768132     -904.11182    
 266.87748           1100  -907.45801      3.3461723     -904.11184    
 278.34087           1110  -907.60176      3.489903      -904.11186    
 285.18127           1120  -907.68754      3.5756695     -904.11187    
 285.88542           1130  -907.69637      3.5844983     -904.11187    
 280.4413            1140  -907.6281       3.5162387     -904.11186    
 270.57492           1150  -907.50437      3.3925317     -904.11184    
 259.38794           1160  -907.36408      3.2522667     -904.11181    
 250.12173           1170  -907.24788      3.1360848     -904.1118     
 244.57863           1180  -907.17838      3.0665842     -904.1118     
 242.31387           1190  -907.15001      3.038188      -904.11182    
 241.19392           1200  -907.13598      3.0241458     -904.11184    
 238.78386           1210  -907.10578      2.9939279     -904.11185    
 233.56204           1220  -907.04031      2.9284556     -904.11185    
 225.44385           1230  -906.93851      2.8266677     -904.11184    
 215.70335           1240  -906.81636      2.7045391     -904.11182    
 206.55508           1250  -906.70164      2.5898359     -904.1118     
 200.55138           1260  -906.62634      2.5145601     -904.11178    
 199.8925            1270  -906.61807      2.506299      -904.11177    
 205.76068           1280  -906.69165      2.5798756     -904.11178    
 217.82568           1290  -906.84294      2.7311493     -904.11179    
 234.11597           1300  -907.04722      2.9354008     -904.11182    
 251.42933           1310  -907.26433      3.1524798     -904.11185    
 266.32889           1320  -907.45116      3.339294      -904.11187    
 276.4063            1330  -907.57752      3.4656469     -904.11187    
 281.00425           1340  -907.63516      3.523297      -904.11187    
 280.81162           1350  -907.63274      3.5208818     -904.11186    
 276.80512           1360  -907.5825       3.4706474     -904.11185    
 269.55218           1370  -907.49156      3.3797083     -904.11185    
 259.34274           1380  -907.36355      3.2517        -904.11185    
 246.77936           1390  -907.20601      3.0941774     -904.11183    
 233.12395           1400  -907.03478      2.9229626     -904.11182    
 220.13666           1410  -906.87193      2.7601249     -904.1118     
 209.65109           1420  -906.74045      2.6286544     -904.11179    
 203.13153           1430  -906.6587       2.5469107     -904.11179    
 201.30658           1440  -906.63582      2.524029      -904.11179    
 203.96023           1450  -906.6691       2.5573012     -904.1118     
 210.00143           1460  -906.74486      2.6330471     -904.11181    
 217.84552           1470  -906.84322      2.7313981     -904.11182    
 225.97535           1480  -906.94516      2.8333319     -904.11183    
 233.50992           1490  -907.03963      2.927802      -904.11183    
 240.6129            1500  -907.12868      3.0168609     -904.11182    
Loop time of 34.796 on 4 procs for 500 steps with 98 atoms

Performance: 0.124 ns/day, 193.311 hours/ns, 14.369 timesteps/s, 1.408 katom-step/s
98.3% CPU use with 4 MPI tasks x 1 OpenMP threads

MPI task timing breakdown:
Section |  min time  |  avg time  |  max time  |%varavg| %total
---------------------------------------------------------------
Pair    | 0.033917   | 14.102     | 34.334     | 372.9 | 40.53
Neigh   | 0          | 0          | 0          |   0.0 |  0.00
Comm    | 0.29621    | 12.406     | 32.421     | 364.4 | 35.65
Output  | 0.03077    | 0.8557     | 3.2933     | 152.1 |  2.46
Modify  | 0.00065082 | 0.0020284  | 0.0027036  |   1.8 |  0.01
Other   |            | 7.43       |            |       | 21.35

Nlocal:           24.5 ave          64 max           0 min
Histogram: 2 0 0 0 0 1 0 0 0 1
Nghost:            661 ave         746 max         503 min
Histogram: 1 0 0 0 0 0 0 1 1 1
Neighs:              0 ave           0 max           0 min
Histogram: 4 0 0 0 0 0 0 0 0 0
FullNghs:       3496.5 ave        9775 max           0 min
Histogram: 2 0 0 0 1 0 0 0 0 1

Total # of neighbors = 13986
Ave neighs/atom = 142.71429
Neighbor list builds = 0
Dangerous builds = 0
if '${NO_height} > 8.0' then quit
Generated 0 of 3 mixed pair_coeff terms from geometric mixing rule
Per MPI rank memory allocation (min/avg/max) = 3.241 | 4.075 | 4.362 Mbytes
     Temp         Step         PotEng         KinEng         TotEng    
 240.6129            1500  -907.12868      3.0168609     -904.11182    
 248.45384           1510  -907.22698      3.1151723     -904.11181    
 258.40771           1520  -907.35178      3.2399764     -904.11181    
 270.70218           1530  -907.50595      3.3941273     -904.11182    
 283.49392           1540  -907.66637      3.5545132     -904.11185    
 293.30095           1550  -907.78936      3.6774759     -904.11188    
 296.65627           1560  -907.83144      3.7195457     -904.11189    
 291.85938           1570  -907.77129      3.6594013     -904.11189    
 279.74522           1580  -907.61937      3.5075111     -904.11186    
 263.23123           1590  -907.41228      3.3004548     -904.11183    
 246.10198           1600  -907.19749      3.0856843     -904.1118     
 231.68474           1610  -907.0167       2.9049175     -904.11179    
 221.92668           1620  -906.89435      2.7825686     -904.11178    
 217.0819            1630  -906.83362      2.7218236     -904.11179    
 215.96387           1640  -906.81962      2.7078056     -904.11181    
 216.59838           1650  -906.82759      2.7157612     -904.11183    
 217.04965           1660  -906.83325      2.7214193     -904.11184    
 216.22966           1670  -906.82297      2.7111381     -904.11183    
 214.48147           1680  -906.80104      2.6892189     -904.11182    
 213.57344           1690  -906.78963      2.6778338     -904.1118     
 215.8337            1700  -906.81796      2.7061735     -904.11179    
 222.71865           1710  -906.90429      2.7924986     -904.11179    
 233.79851           1720  -907.04323      2.9314204     -904.11181    
 246.95954           1730  -907.20827      3.0964365     -904.11183    
 259.57952           1740  -907.36652      3.2546688     -904.11185    
 269.69829           1750  -907.49339      3.3815403     -904.11185    
 276.40696           1760  -907.57751      3.4656551     -904.11185    
 279.59603           1770  -907.61749      3.5056404     -904.11185    
 279.68779           1780  -907.61863      3.5067909     -904.11184    
 277.43782           1790  -907.59042      3.4785804     -904.11184    
 273.65445           1800  -907.54297      3.4311436     -904.11183    
 269.09069           1810  -907.48575      3.3739221     -904.11182    
 264.45945           1820  -907.42767      3.3158545     -904.11182    
 260.19119           1830  -907.37416      3.2623381     -904.11182    
 256.07404           1840  -907.32255      3.2107162     -904.11183    
 251.43785           1850  -907.26442      3.1525866     -904.11183    
 246.07537           1860  -907.19718      3.0853506     -904.11182    
 240.99553           1870  -907.13347      3.0216583     -904.11181    
 238.04124           1880  -907.09641      2.9846168     -904.1118     
 238.54469           1890  -907.10273      2.9909292     -904.1118     
 242.21421           1900  -907.14875      3.0369385     -904.11182    
 247.29716           1910  -907.2125       3.1006697     -904.11183    
 251.82756           1920  -907.26931      3.1574729     -904.11184    
 254.79622           1930  -907.30653      3.1946946     -904.11184    
 256.39611           1940  -907.32658      3.2147544     -904.11183    
 257.47219           1950  -907.34007      3.2282466     -904.11182    
 258.79748           1960  -907.35668      3.2448634     -904.11182    
 260.60419           1970  -907.37934      3.2675163     -904.11182    
 262.46434           1980  -907.40267      3.2908394     -904.11183    
 263.45158           1990  -907.41506      3.3032176     -904.11184    
 262.45885           2000  -907.40262      3.2907705     -904.11185    
Loop time of 35.1141 on 4 procs for 500 steps with 98 atoms

Performance: 0.123 ns/day, 195.078 hours/ns, 14.239 timesteps/s, 1.395 katom-step/s
98.3% CPU use with 4 MPI tasks x 1 OpenMP threads

MPI task timing breakdown:
Section |  min time  |  avg time  |  max time  |%varavg| %total
---------------------------------------------------------------
Pair    | 0.033055   | 14.166     | 34.504     | 374.1 | 40.34
Neigh   | 0          | 0          | 0          |   0.0 |  0.00
Comm    | 0.43903    | 12.556     | 32.676     | 364.5 | 35.76
Output  | 0.019286   | 0.81745    | 3.2064     | 152.5 |  2.33
Modify  | 0.00059527 | 0.0020778  | 0.0028635  |   1.9 |  0.01
Other   |            | 7.573      |            |       | 21.57

Nlocal:           24.5 ave          64 max           0 min
Histogram: 2 0 0 0 0 1 0 0 0 1
Nghost:         661.75 ave         740 max         506 min
Histogram: 1 0 0 0 0 0 0 1 1 1
Neighs:              0 ave           0 max           0 min
Histogram: 4 0 0 0 0 0 0 0 0 0
FullNghs:       3506.5 ave        9791 max           0 min
Histogram: 2 0 0 0 1 0 0 0 0 1

Total # of neighbors = 14026
Ave neighs/atom = 143.12245
Neighbor list builds = 0
Dangerous builds = 0
if '${NO_height} > 8.0' then quit
Generated 0 of 3 mixed pair_coeff terms from geometric mixing rule
Per MPI rank memory allocation (min/avg/max) = 3.241 | 4.075 | 4.362 Mbytes
     Temp         Step         PotEng         KinEng         TotEng    
 262.45885           2000  -907.40262      3.2907705     -904.11185    
 258.57376           2010  -907.35391      3.2420584     -904.11185    
 251.4456            2020  -907.26453      3.1526838     -904.11185    
 241.64392           2030  -907.14162      3.029788      -904.11183    
 230.93368           2040  -907.00731      2.8955005     -904.11181    
 222.00194           2050  -906.8953       2.7835123     -904.11179    
 217.35587           2060  -906.83704      2.7252587     -904.11178    
 217.98637           2070  -906.84496      2.7331641     -904.11179    
 222.85371           2080  -906.906        2.7941919     -904.11181    
 229.70107           2090  -906.99187      2.8800458     -904.11183    
 236.52788           2100  -907.07747      2.965642      -904.11183    
 242.52562           2110  -907.15267      3.040843      -904.11183    
 247.92526           2120  -907.22037      3.108545      -904.11182    
 253.18948           2130  -907.28637      3.1745489     -904.11182    
 258.32294           2140  -907.35074      3.2389135     -904.11183    
 262.70546           2150  -907.4057       3.2938626     -904.11184    
 265.36572           2160  -907.43906      3.3272175     -904.11184    
 265.40003           2170  -907.4395       3.3276477     -904.11185    
 262.34723           2180  -907.40122      3.2893709     -904.11185    
 256.43849           2190  -907.32713      3.2152858     -904.11184    
 248.65139           2200  -907.22948      3.1176493     -904.11183    
 240.59769           2210  -907.12848      3.0166702     -904.11181    
 234.28779           2220  -907.04935      2.9375552     -904.1118     
 231.6084            2230  -907.01575      2.9039604     -904.11179    
 233.39372           2240  -907.03814      2.9263451     -904.1118     
 238.5694            2250  -907.10306      2.991239      -904.11182    
 244.30219           2260  -907.17497      3.063118      -904.11185    
 247.4173            2270  -907.21404      3.102176      -904.11186    
 246.1068            2280  -907.1976       3.0857446     -904.11186    
 240.78703           2290  -907.13088      3.0190441     -904.11184    
 233.78835           2300  -907.0431       2.931293      -904.11181    
 228.2079            2310  -906.97311      2.861324      -904.11179    
 226.59027           2320  -906.95282      2.8410418     -904.11178    
 230.06952           2330  -906.99645      2.8846655     -904.11179    
 238.1159            2340  -907.09735      2.9855528     -904.1118     
 248.70476           2350  -907.23014      3.1183184     -904.11182    
 258.82229           2360  -907.35703      3.2451744     -904.11185    
 265.24904           2370  -907.43763      3.3257546     -904.11187    
 265.51465           2380  -907.44096      3.3290848     -904.11188    
 258.8302            2390  -907.35714      3.2452736     -904.11187    
 246.61234           2400  -907.20393      3.0920832     -904.11184    
 232.1612            2410  -907.0227       2.9108915     -904.11181    
 219.38046           2420  -906.86243      2.7506436     -904.11179    
 211.15078           2430  -906.75924      2.6474579     -904.11178    
 208.43239           2440  -906.72516      2.6133741     -904.11179    
 210.57973           2450  -906.7521       2.6402979     -904.1118     
 216.21382           2460  -906.82275      2.7109395     -904.11181    
 223.75998           2470  -906.91738      2.8055549     -904.11182    
 231.57679           2480  -907.0154       2.903564      -904.11183    
 238.12625           2490  -907.09753      2.9856827     -904.11184    
 242.35721           2500  -907.15058      3.0387314     -904.11184    
Loop time of 34.4522 on 4 procs for 500 steps with 98 atoms

Performance: 0.125 ns/day, 191.401 hours/ns, 14.513 timesteps/s, 1.422 katom-step/s
98.5% CPU use with 4 MPI tasks x 1 OpenMP threads

MPI task timing breakdown:
Section |  min time  |  avg time  |  max time  |%varavg| %total
---------------------------------------------------------------
Pair    | 0.02591    | 13.898     | 34.068     | 390.8 | 40.34
Neigh   | 0          | 0          | 0          |   0.0 |  0.00
Comm    | 0.093455   | 3.2645     | 12.771     | 303.8 |  9.48
Output  | 0.073751   | 1.808      | 3.5282     | 127.9 |  5.25
Modify  | 0.0003985  | 0.0016552  | 0.0030176  |   3.0 |  0.00
Other   |            | 15.48      |            |       | 44.93

Nlocal:           24.5 ave          64 max           0 min
Histogram: 2 0 0 0 0 1 0 0 0 1
Nghost:         656.75 ave         735 max         502 min
Histogram: 1 0 0 0 0 0 0 1 1 1
Neighs:              0 ave           0 max           0 min
Histogram: 4 0 0 0 0 0 0 0 0 0
FullNghs:         3527 ave        9790 max           0 min
Histogram: 2 0 0 0 1 0 0 0 0 1

Total # of neighbors = 14108
Ave neighs/atom = 143.95918
Neighbor list builds = 0
Dangerous builds = 0
if '${NO_height} > 8.0' then quit
Generated 0 of 3 mixed pair_coeff terms from geometric mixing rule
Per MPI rank memory allocation (min/avg/max) = 3.241 | 4.075 | 4.362 Mbytes
     Temp         Step         PotEng         KinEng         TotEng    
 242.35721           2500  -907.15058      3.0387314     -904.11184    
 244.11087           2510  -907.17256      3.0607192     -904.11184    
 244.26704           2520  -907.1745       3.0626773     -904.11182    
 244.43855           2530  -907.17664      3.0648278     -904.11181    
 246.26162           2540  -907.19949      3.0876859     -904.1118     
 250.64622           2550  -907.25447      3.1426609     -904.11181    
 257.47024           2560  -907.34004      3.2282221     -904.11181    
 265.90497           2570  -907.4458       3.3339787     -904.11182    
 275.00454           2580  -907.5599       3.4480712     -904.11183    
 283.8681            2590  -907.67104      3.5592046     -904.11184    
 291.10914           2600  -907.76185      3.6499945     -904.11186    
 294.33936           2610  -907.80238      3.6904958     -904.11188    
 290.68277           2620  -907.75654      3.6446486     -904.11189    
 278.35799           2630  -907.60201      3.4901176     -904.11189    
 258.18583           2640  -907.34905      3.2371943     -904.11186    
 233.90112           2650  -907.04452      2.932707      -904.11181    
 211.11562           2660  -906.75878      2.647017      -904.11177    
 195.48192           2670  -906.56273      2.450998      -904.11174    
 190.84011           2680  -906.50453      2.3927979     -904.11173    
 198.05712           2690  -906.59503      2.4832865     -904.11175    
 214.87667           2700  -906.80596      2.694174      -904.11179    
 236.65737           2710  -907.0791       2.9672655     -904.11183    
 257.68699           2720  -907.34281      3.2309398     -904.11187    
 272.79326           2730  -907.53224      3.4203457     -904.1119     
 278.93605           2740  -907.60926      3.4973655     -904.1119     
 276.31395           2750  -907.57636      3.4644889     -904.11187    
 268.39571           2760  -907.47704      3.3652082     -904.11183    
 260.43729           2770  -907.37721      3.2654237     -904.11179    
 256.91014           2780  -907.33298      3.2211994     -904.11178    
 259.37271           2790  -907.36387      3.2520758     -904.11179    
 266.18609           2800  -907.44932      3.3375035     -904.11182    
 273.9526            2810  -907.54673      3.4348819     -904.11185    
 279.3709            2820  -907.61468      3.5028178     -904.11186    
 280.40426           2830  -907.62764      3.5157742     -904.11186    
 276.5165            2840  -907.57889      3.4670286     -904.11186    
 268.36071           2850  -907.47662      3.3647693     -904.11185    
 257.36401           2860  -907.33872      3.2268901     -904.11183    
 245.35036           2870  -907.18808      3.0762603     -904.11182    
 234.19869           2880  -907.04824      2.936438      -904.1118     
 225.51461           2890  -906.93935      2.827555      -904.1118     
 220.31998           2900  -906.87422      2.7624235     -904.11179    
 218.90747           2910  -906.85651      2.7447131     -904.1118     
 221.04876           2920  -906.88336      2.7715611     -904.1118     
 226.47023           2930  -906.95134      2.8395368     -904.1118     
 235.10525           2940  -907.05961      2.9478047     -904.1118     
 246.66071           2950  -907.2045       3.0926898     -904.11181    
 259.78154           2960  -907.36904      3.2572017     -904.11184    
 271.80592           2970  -907.51983      3.4079662     -904.11186    
 279.73231           2980  -907.61922      3.5073492     -904.11187    
 281.80547           2990  -907.64521      3.5333429     -904.11187    
 278.46539           3000  -907.60331      3.4914643     -904.11185    
Loop time of 34.7084 on 4 procs for 500 steps with 98 atoms

Performance: 0.124 ns/day, 192.825 hours/ns, 14.406 timesteps/s, 1.412 katom-step/s
98.4% CPU use with 4 MPI tasks x 1 OpenMP threads

MPI task timing breakdown:
Section |  min time  |  avg time  |  max time  |%varavg| %total
---------------------------------------------------------------
Pair    | 0.027921   | 13.948     | 34.271     | 391.9 | 40.19
Neigh   | 0          | 0          | 0          |   0.0 |  0.00
Comm    | 0.10743    | 3.3258     | 12.974     | 305.5 |  9.58
Output  | 0.056938   | 1.7768     | 3.4957     | 129.0 |  5.12
Modify  | 0.00043452 | 0.0016642  | 0.0030515  |   2.9 |  0.00
Other   |            | 15.66      |            |       | 45.11

Nlocal:           24.5 ave          64 max           0 min
Histogram: 2 0 0 0 0 1 0 0 0 1
Nghost:         656.75 ave         735 max         502 min
Histogram: 1 0 0 0 0 0 0 1 1 1
Neighs:              0 ave           0 max           0 min
Histogram: 4 0 0 0 0 0 0 0 0 0
FullNghs:         3533 ave        9791 max           0 min
Histogram: 2 0 0 0 1 0 0 0 0 1

Total # of neighbors = 14132
Ave neighs/atom = 144.20408
Neighbor list builds = 0
Dangerous builds = 0
if '${NO_height} > 8.0' then quit
Generated 0 of 3 mixed pair_coeff terms from geometric mixing rule
Per MPI rank memory allocation (min/avg/max) = 3.241 | 4.075 | 4.362 Mbytes
     Temp         Step         PotEng         KinEng         TotEng    
 278.46539           3000  -907.60331      3.4914643     -904.11185    
 272.01293           3010  -907.52239      3.4105617     -904.11183    
 265.36773           3020  -907.43905      3.3272427     -904.11181    
 260.75859           3030  -907.38125      3.2694522     -904.1118     
 259.01618           3040  -907.35941      3.2476055     -904.11181    
 259.60212           3050  -907.36677      3.2549522     -904.11182    
 261.05548           3060  -907.38501      3.2731748     -904.11183    
 261.47841           3070  -907.39032      3.2784776     -904.11185    
 258.96851           3080  -907.35887      3.2470078     -904.11186    
 252.15991           3090  -907.2735       3.1616399     -904.11186    
 240.89454           3100  -907.13224      3.0203921     -904.11185    
 226.75308           3110  -906.95491      2.8430832     -904.11182    
 212.93186           3120  -906.78158      2.6697895     -904.11179    
 203.09638           3130  -906.65824      2.5464699     -904.11177    
 199.70295           3140  -906.61569      2.5039223     -904.11177    
 202.99542           3150  -906.65699      2.5452041     -904.11178    
 211.3973            3160  -906.76235      2.6505488     -904.1118     
 222.75955           3170  -906.90483      2.7930114     -904.11182    
 235.31288           3180  -907.06223      2.9504079     -904.11182    
 247.80563           3190  -907.21888      3.107045      -904.11183    
 259.19345           3200  -907.36167      3.2498281     -904.11184    
 268.41164           3210  -907.47726      3.365408      -904.11185    
 274.42641           3220  -907.55268      3.4408225     -904.11185    
 276.45908           3230  -907.57817      3.4663087     -904.11186    
 274.19269           3240  -907.54975      3.4378921     -904.11185    
 267.86487           3250  -907.4704       3.3585524     -904.11185    
 258.26925           3260  -907.35008      3.2382403     -904.11184    
 246.74597           3270  -907.20558      3.0937587     -904.11182    
 235.24189           3280  -907.06132      2.9495178     -904.1118     
 226.31693           3290  -906.9494       2.8376147     -904.11178    
 222.67874           3300  -906.90377      2.7919981     -904.11177    
 226.00873           3310  -906.94552      2.8337504     -904.11177    
 235.65741           3320  -907.06653      2.9547278     -904.1118     
 248.36437           3330  -907.22589      3.1140506     -904.11184    
 259.55158           3340  -907.36619      3.2543185     -904.11187    
 265.3941            3350  -907.43945      3.3275733     -904.11188    
 264.29683           3360  -907.42569      3.3138156     -904.11187    
 257.14792           3370  -907.33603      3.2241808     -904.11185    
 246.65968           3380  -907.2045       3.0926768     -904.11182    
 236.30807           3390  -907.07468      2.962886      -904.1118     
 229.2069            3400  -906.98563      2.8738497     -904.11178    
 227.18794           3410  -906.96032      2.8485356     -904.11178    
 230.29602           3420  -906.9993       2.8875055     -904.11179    
 236.81597           3430  -907.08107      2.9692541     -904.11182    
 243.87553           3440  -907.16961      3.0577685     -904.11184    
 248.52406           3450  -907.22791      3.1160529     -904.11186    
 248.95936           3460  -907.23337      3.1215108     -904.11186    
 245.34786           3470  -907.18807      3.0762288     -904.11184    
 239.65209           3480  -907.11664      3.004814      -904.11182    
 234.42137           3490  -907.05104      2.93923       -904.11181    
 231.41822           3500  -907.01338      2.9015758     -904.1118     
Loop time of 34.668 on 4 procs for 500 steps with 98 atoms

Performance: 0.125 ns/day, 192.600 hours/ns, 14.423 timesteps/s, 1.413 katom-step/s
98.5% CPU use with 4 MPI tasks x 1 OpenMP threads

MPI task timing breakdown:
Section |  min time  |  avg time  |  max time  |%varavg| %total
---------------------------------------------------------------
Pair    | 0.024942   | 13.949     | 34.303     | 392.1 | 40.23
Neigh   | 0          | 0          | 0          |   0.0 |  0.00
Comm    | 0.073283   | 3.3168     | 13.019     | 307.6 |  9.57
Output  | 0.051392   | 1.8003     | 3.5414     | 129.7 |  5.19
Modify  | 0.00047804 | 0.0016507  | 0.0029786  |   2.9 |  0.00
Other   |            | 15.6       |            |       | 45.00

Nlocal:           24.5 ave          64 max           0 min
Histogram: 2 0 0 0 0 1 0 0 0 1
Nghost:         656.75 ave         729 max         502 min
Histogram: 1 0 0 0 0 0 0 1 0 2
Neighs:              0 ave           0 max           0 min
Histogram: 4 0 0 0 0 0 0 0 0 0
FullNghs:       3552.5 ave        9805 max           0 min
Histogram: 2 0 0 0 1 0 0 0 0 1

Total # of neighbors = 14210
Ave neighs/atom = 145
Neighbor list builds = 0
Dangerous builds = 0
if '${NO_height} > 8.0' then quit
Generated 0 of 3 mixed pair_coeff terms from geometric mixing rule
Per MPI rank memory allocation (min/avg/max) = 3.241 | 4.075 | 4.362 Mbytes
     Temp         Step         PotEng         KinEng         TotEng    
 231.41822           3500  -907.01338      2.9015758     -904.1118     
 231.15122           3510  -907.01003      2.898228      -904.11181    
 233.44604           3520  -907.03881      2.9270011     -904.11181    
 238.19592           3530  -907.09836      2.9865562     -904.1118     
 245.48278           3540  -907.18973      3.0779206     -904.1118     
 255.07583           3550  -907.31001      3.1982005     -904.11181    
 265.94206           3560  -907.44627      3.3344438     -904.11183    
 276.3123            3570  -907.57631      3.4644683     -904.11184    
 284.25329           3580  -907.67589      3.5640343     -904.11185    
 288.31334           3590  -907.7268       3.6149401     -904.11186    
 287.90058           3600  -907.72162      3.6097648     -904.11186    
 283.30945           3610  -907.66405      3.5522001     -904.11185    
 275.51511           3620  -907.56631      3.4544729     -904.11184    
 265.9543            3630  -907.44642      3.3345972     -904.11182    
 256.41267           3640  -907.32677      3.2149621     -904.11181    
 248.86549           3650  -907.23213      3.1203337     -904.11179    
 244.96929           3660  -907.18327      3.0714824     -904.11179    
 245.18901           3670  -907.18604      3.0742372     -904.1118     
 248.14362           3680  -907.22311      3.1112828     -904.11182    
 250.98068           3690  -907.2587       3.1468546     -904.11185    
 250.85732           3700  -907.25717      3.1453078     -904.11186    
 246.5315            3710  -907.20292      3.0910697     -904.11185    
 239.00104           3720  -907.10848      2.996651      -904.11183    
 230.99081           3730  -907.00802      2.8962169     -904.1118     
 225.77213           3740  -906.94256      2.8307838     -904.11178    
 225.98285           3750  -906.94519      2.8334259     -904.11177    
 232.83978           3760  -907.03117      2.9193997     -904.11177    
 245.80233           3770  -907.19372      3.0819271     -904.11179    
 262.69189           3780  -907.40551      3.2936925     -904.11182    
 280.20726           3790  -907.62515      3.5133042     -904.11185    
 294.70821           3800  -907.80699      3.6951205     -904.11187    
 303.16684           3810  -907.91306      3.8011768     -904.11188    
 304.09158           3820  -907.92465      3.8127714     -904.11188    
 298.00353           3830  -907.8483       3.736438      -904.11186    
 287.04621           3840  -907.71089      3.5990526     -904.11184    
 273.78202           3850  -907.54457      3.432743      -904.11183    
 259.95546           3860  -907.3712       3.2593824     -904.11182    
 246.21207           3870  -907.19888      3.0870646     -904.11182    
 232.88564           3880  -907.03179      2.9199747     -904.11181    
 220.88823           3890  -906.88135      2.7695483     -904.1118     
 211.79267           3900  -906.76729      2.6555061     -904.11178    
 207.15323           3910  -906.70911      2.5973357     -904.11178    
 207.73427           3920  -906.7164       2.6046208     -904.11178    
 213.18869           3930  -906.7848       2.6730098     -904.11179    
 222.27397           3940  -906.89873      2.786923      -904.11181    
 233.35923           3950  -907.03773      2.9259127     -904.11182    
 244.87362           3960  -907.18211      3.0702828     -904.11183    
 255.48459           3970  -907.31516      3.2033256     -904.11184    
 264.10362           3980  -907.42324      3.311393      -904.11185    
 269.982             3990  -907.49694      3.3850975     -904.11185    
 273.03              4000  -907.53516      3.4233141     -904.11184    
Loop time of 34.7558 on 4 procs for 500 steps with 98 atoms

Performance: 0.124 ns/day, 193.088 hours/ns, 14.386 timesteps/s, 1.410 katom-step/s
98.5% CPU use with 4 MPI tasks x 1 OpenMP threads

MPI task timing breakdown:
Section |  min time  |  avg time  |  max time  |%varavg| %total
---------------------------------------------------------------
Pair    | 0.025044   | 13.862     | 34.28      | 392.1 | 39.88
Neigh   | 0          | 0          | 0          |   0.0 |  0.00
Comm    | 0.10908    | 3.428      | 13.372     | 310.1 |  9.86
Output  | 0.10031    | 1.8136     | 3.5053     | 125.6 |  5.22
Modify  | 0.00049666 | 0.0021932  | 0.0031261  |   2.2 |  0.01
Other   |            | 15.65      |            |       | 45.03

Nlocal:           24.5 ave          65 max           0 min
Histogram: 2 0 0 0 0 1 0 0 0 1
Nghost:         658.25 ave         731 max         502 min
Histogram: 1 0 0 0 0 0 0 1 0 2
Neighs:              0 ave           0 max           0 min
Histogram: 4 0 0 0 0 0 0 0 0 0
FullNghs:         3562 ave        9957 max           0 min
Histogram: 2 0 0 0 1 0 0 0 0 1

Total # of neighbors = 14248
Ave neighs/atom = 145.38776
Neighbor list builds = 0
Dangerous builds = 0
if '${NO_height} > 8.0' then quit
Generated 0 of 3 mixed pair_coeff terms from geometric mixing rule
Per MPI rank memory allocation (min/avg/max) = 3.241 | 4.075 | 4.362 Mbytes
     Temp         Step         PotEng         KinEng         TotEng    
 273.03              4000  -907.53516      3.4233141     -904.11184    
 274.13276           4010  -907.54897      3.4371407     -904.11183    
 274.94034           4020  -907.55908      3.4472664     -904.11182    
 276.91463           4030  -907.58383      3.4720205     -904.11181    
 280.24449           4040  -907.62559      3.513771      -904.11182    
 283.55598           4050  -907.66713      3.5552912     -904.11184    
 284.68125           4060  -907.68125      3.5694001     -904.11185    
 281.83288           4070  -907.64555      3.5336866     -904.11186    
 274.33808           4080  -907.55157      3.4397151     -904.11185    
 262.73949           4090  -907.40613      3.2942892     -904.11184    
 248.57906           4100  -907.22856      3.1167424     -904.11182    
 234.0839            4110  -907.0468       2.9349987     -904.1118     
 221.72699           4120  -906.89185      2.7800649     -904.11178    
 213.59561           4130  -906.78989      2.6781117     -904.11178    
 210.71267           4140  -906.75374      2.6419648     -904.11178    
 212.6361            4150  -906.77788      2.6660812     -904.11179    
 217.58523           4160  -906.83995      2.7281345     -904.11181    
 223.15783           4170  -906.90984      2.7980051     -904.11183    
 227.46919           4180  -906.9639       2.8520619     -904.11184    
 230.12644           4190  -906.99721      2.8853792     -904.11183    
 232.23358           4200  -907.02361      2.911799      -904.11181    
 235.28502           4210  -907.06187      2.9500587     -904.11181    
 239.87312           4220  -907.1194       3.0075853     -904.11182    
 245.29322           4230  -907.18737      3.0755438     -904.11183    
 250.2059            4240  -907.24898      3.1371401     -904.11184    
 253.60771           4250  -907.29163      3.1797928     -904.11184    
 255.34915           4260  -907.31346      3.2016275     -904.11183    
 256.04056           4270  -907.32212      3.2102965     -904.11182    
 256.6056            4280  -907.3292       3.2173811     -904.11182    
 257.7833            4290  -907.34396      3.2321474     -904.11181    
 259.76929           4300  -907.36887      3.2570482     -904.11182    
 262.08051           4310  -907.39785      3.2860267     -904.11183    
 263.69538           4320  -907.41811      3.3062744     -904.11184    
 263.46026           4330  -907.41517      3.3033264     -904.11184    
 260.63087           4340  -907.37969      3.2678508     -904.11184    
 255.38814           4350  -907.31395      3.2021162     -904.11183    
 249.1657            4360  -907.23591      3.1240979     -904.11181    
 244.47042           4370  -907.17702      3.0652274     -904.11179    
 243.90272           4380  -907.16989      3.0581094     -904.11178    
 248.68491           4390  -907.22986      3.1180696     -904.11179    
 257.63318           4400  -907.34208      3.2302651     -904.11182    
 267.44018           4410  -907.46508      3.3532276     -904.11185    
 274.24225           4420  -907.55038      3.4385135     -904.11187    
 275.44345           4430  -907.56545      3.4535744     -904.11187    
 270.70333           4440  -907.506        3.3941417     -904.11186    
 261.77588           4450  -907.39404      3.2822072     -904.11183    
 251.55382           4460  -907.26585      3.1540407     -904.11181    
 242.87189           4470  -907.15698      3.0451847     -904.1118     
 237.55545           4480  -907.09032      2.9785259     -904.11179    
 236.01995           4490  -907.07107      2.9592733     -904.1118     
 237.46715           4500  -907.08923      2.9774187     -904.11181    
Loop time of 34.5069 on 4 procs for 500 steps with 98 atoms

Performance: 0.125 ns/day, 191.705 hours/ns, 14.490 timesteps/s, 1.420 katom-step/s
98.5% CPU use with 4 MPI tasks x 1 OpenMP threads

MPI task timing breakdown:
Section |  min time  |  avg time  |  max time  |%varavg| %total
---------------------------------------------------------------
Pair    | 0.025765   | 13.957     | 34.19      | 391.5 | 40.45
Neigh   | 0          | 0          | 0          |   0.0 |  0.00
Comm    | 0.055187   | 3.2369     | 12.755     | 305.4 |  9.38
Output  | 0.052901   | 1.7806     | 3.4953     | 128.5 |  5.16
Modify  | 0.00044397 | 0.001638   | 0.0029864  |   2.9 |  0.00
Other   |            | 15.53      |            |       | 45.01

Nlocal:           24.5 ave          64 max           0 min
Histogram: 2 0 0 0 0 1 0 0 0 1
Nghost:          654.5 ave         726 max         502 min
Histogram: 1 0 0 0 0 0 0 1 0 2
Neighs:              0 ave           0 max           0 min
Histogram: 4 0 0 0 0 0 0 0 0 0
FullNghs:       3577.5 ave        9838 max           0 min
Histogram: 2 0 0 0 1 0 0 0 0 1

Total # of neighbors = 14310
Ave neighs/atom = 146.02041
Neighbor list builds = 0
Dangerous builds = 0
if '${NO_height} > 8.0' then quit
Generated 0 of 3 mixed pair_coeff terms from geometric mixing rule
Per MPI rank memory allocation (min/avg/max) = 3.241 | 4.075 | 4.362 Mbytes
     Temp         Step         PotEng         KinEng         TotEng    
 237.46715           4500  -907.08923      2.9774187     -904.11181    
 240.43591           4510  -907.12646      3.0146417     -904.11182    
 243.38829           4520  -907.16349      3.0516594     -904.11183    
 245.23213           4530  -907.18661      3.0747778     -904.11183    
 245.80049           4540  -907.19373      3.0819041     -904.11183    
 246.07131           4550  -907.19711      3.0852997     -904.11181    
 247.72835           4560  -907.21788      3.106076      -904.1118     
 252.07304           4570  -907.27235      3.1605508     -904.1118     
 259.01055           4580  -907.35935      3.247535      -904.11182    
 266.96156           4590  -907.45906      3.3472265     -904.11183    
 273.76886           4600  -907.54442      3.432578      -904.11185    
 277.77263           4610  -907.59463      3.4827783     -904.11185    
 278.28997           4620  -907.60111      3.4892648     -904.11185    
 275.50629           4630  -907.5662       3.4543623     -904.11184    
 270.17187           4640  -907.49931      3.3874781     -904.11183    
 263.33368           4650  -907.41356      3.3017394     -904.11182    
 256.13569           4660  -907.32331      3.2114892     -904.11182    
 249.65003           4670  -907.24198      3.1301705     -904.11181    
 244.68995           4680  -907.17979      3.0679799     -904.11181    
 241.60496           4690  -907.14111      3.0292996     -904.11181    
 240.18971           4700  -907.12337      3.0115548     -904.11181    
 239.91877           4710  -907.11998      3.0081577     -904.11182    
 240.46745           4720  -907.12685      3.0150372     -904.11182    
 242.1055            4730  -907.14739      3.0355754     -904.11181    
 245.49688           4740  -907.18991      3.0780974     -904.11181    
 250.83698           4750  -907.25687      3.1450528     -904.11182    
 257.11175           4760  -907.33556      3.2237273     -904.11183    
 262.37046           4770  -907.40151      3.2896623     -904.11185    
 264.8502            4780  -907.43261      3.3207538     -904.11185    
 264.12659           4790  -907.42352      3.311681      -904.11184    
 261.31122           4800  -907.38821      3.2763813     -904.11183    
 258.25431           4810  -907.34987      3.238053      -904.11181    
 256.60162           4820  -907.32914      3.2173312     -904.11181    
 257.14447           4830  -907.33595      3.2241376     -904.11181    
 259.51911           4840  -907.36573      3.2539114     -904.11182    
 262.32649           4850  -907.40095      3.2891109     -904.11184    
 263.61889           4860  -907.41717      3.3053154     -904.11185    
 261.484             4870  -907.39041      3.2785475     -904.11186    
 254.66923           4880  -907.30496      3.1931024     -904.11186    
 243.23035           4890  -907.16153      3.049679      -904.11185    
 228.92095           4900  -906.98209      2.8702645     -904.11182    
 214.99791           4910  -906.80749      2.6956941     -904.11179    
 205.18112           4920  -906.68438      2.5726089     -904.11177    
 201.95538           4930  -906.64394      2.5321638     -904.11177    
 205.22307           4940  -906.68493      2.5731349     -904.1118     
 212.42319           4950  -906.77524      2.6634116     -904.11182    
 220.11759           4960  -906.87173      2.7598858     -904.11184    
 225.8403            4970  -906.94348      2.8316385     -904.11185    
 228.97897           4980  -906.98283      2.8709919     -904.11184    
 230.41376           4990  -907.00081      2.8889817     -904.11183    
 231.54292           5000  -907.01496      2.9031393     -904.11182    
Loop time of 35.1133 on 4 procs for 500 steps with 98 atoms

Performance: 0.123 ns/day, 195.074 hours/ns, 14.240 timesteps/s, 1.395 katom-step/s
98.4% CPU use with 4 MPI tasks x 1 OpenMP threads

MPI task timing breakdown:
Section |  min time  |  avg time  |  max time  |%varavg| %total
---------------------------------------------------------------
Pair    | 0.026125   | 13.66      | 34.591     | 394.4 | 38.90
Neigh   | 0          | 0          | 0          |   0.0 |  0.00
Comm    | 0.124      | 3.8018     | 14.822     | 326.3 | 10.83
Output  | 0.052356   | 1.8155     | 3.5712     | 130.2 |  5.17
Modify  | 0.00049628 | 0.0017033  | 0.0031262  |   2.9 |  0.00
Other   |            | 15.83      |            |       | 45.09

Nlocal:           24.5 ave          67 max           0 min
Histogram: 2 0 0 0 1 0 0 0 0 1
Nghost:          654.5 ave         726 max         502 min
Histogram: 1 0 0 0 0 0 0 1 0 2
Neighs:              0 ave           0 max           0 min
Histogram: 4 0 0 0 0 0 0 0 0 0
FullNghs:       3593.5 ave       10281 max           0 min
Histogram: 2 0 0 1 0 0 0 0 0 1

Total # of neighbors = 14374
Ave neighs/atom = 146.67347
Neighbor list builds = 0
Dangerous builds = 0
if '${NO_height} > 8.0' then quit
Generated 0 of 3 mixed pair_coeff terms from geometric mixing rule
Per MPI rank memory allocation (min/avg/max) = 3.241 | 4.075 | 4.363 Mbytes
     Temp         Step         PotEng         KinEng         TotEng    
 231.54292           5000  -907.01496      2.9031393     -904.11182    
 233.52219           5010  -907.03977      2.9279558     -904.11181    
 237.01956           5020  -907.08362      2.9718067     -904.11181    
 242.19795           5030  -907.14855      3.0367346     -904.11181    
 248.66507           5040  -907.22964      3.1178209     -904.11182    
 255.41443           5050  -907.31428      3.2024459     -904.11183    
 260.87264           5060  -907.38273      3.2708822     -904.11185    
 263.27414           5070  -907.41285      3.3009927     -904.11186    
 261.45072           5080  -907.38999      3.2781303     -904.11186    
 255.58254           5090  -907.3164       3.2045537     -904.11184    
 247.24244           5100  -907.21181      3.0999836     -904.11183    
 238.53194           5110  -907.10259      2.9907693     -904.11182    
 230.90027           5120  -907.0069       2.8950816     -904.11181    
 224.63377           5130  -906.92833      2.8165108     -904.11182    
 219.39125           5140  -906.8626       2.7507789     -904.11182    
 215.10162           5150  -906.80881      2.6969945     -904.11181    
 212.30277           5160  -906.77371      2.6619018     -904.11181    
 211.76404           5170  -906.76695      2.6551472     -904.1118     
 213.9097            5180  -906.79385      2.6820499     -904.1118     
 218.51783           5190  -906.85164      2.7398277     -904.11181    
 224.79728           5200  -906.93038      2.818561      -904.11182    
 231.68012           5210  -907.01669      2.9048595     -904.11183    
 238.06999           5220  -907.09681      2.9849772     -904.11184    
 242.92458           5230  -907.15769      3.0458452     -904.11184    
 245.31531           5240  -907.18767      3.0758208     -904.11185    
 244.64934           5250  -907.17932      3.0674707     -904.11185    
 241.08356           5260  -907.1346       3.0227622     -904.11184    
 235.92654           5270  -907.06992      2.9581021     -904.11182    
 231.54717           5280  -907.01499      2.9031926     -904.1118     
 230.39579           5290  -907.00055      2.8887563     -904.11179    
 233.51722           5300  -907.03969      2.9278936     -904.1118     
 239.70832           5310  -907.11734      3.0055191     -904.11182    
 246.15729           5320  -907.19822      3.0863777     -904.11185    
 250.10709           5330  -907.24776      3.1359012     -904.11186    
 250.23795           5340  -907.24939      3.137542      -904.11185    
 246.97802           5350  -907.20851      3.0966682     -904.11184    
 241.96406           5360  -907.14562      3.033802      -904.11182    
 237.23817           5370  -907.08635      2.9745477     -904.11181    
 234.55728           5380  -907.05273      2.9409341     -904.1118     
 234.95095           5390  -907.05767      2.94587       -904.1118     
 238.53308           5400  -907.10259      2.9907835     -904.1118     
 244.51507           5410  -907.1776       3.0657872     -904.11182    
 251.38527           5420  -907.26376      3.1519273     -904.11183    
 257.28777           5430  -907.33778      3.2259343     -904.11184    
 260.64707           5440  -907.3799       3.268054      -904.11185    
 260.92693           5450  -907.38341      3.2715629     -904.11184    
 259.06866           5460  -907.36009      3.2482635     -904.11183    
 257.04698           5470  -907.33473      3.2229152     -904.11181    
 256.61136           5480  -907.32926      3.2174533     -904.11181    
 258.14704           5490  -907.34853      3.236708      -904.11182    
 260.59209           5500  -907.3792       3.2673646     -904.11183    
Loop time of 36.6651 on 4 procs for 500 steps with 98 atoms

Performance: 0.118 ns/day, 203.695 hours/ns, 13.637 timesteps/s, 1.336 katom-step/s
98.4% CPU use with 4 MPI tasks x 1 OpenMP threads

MPI task timing breakdown:
Section |  min time  |  avg time  |  max time  |%varavg| %total
---------------------------------------------------------------
Pair    | 0.02516    | 13.844     | 36.241     | 405.5 | 37.76
Neigh   | 0          | 0          | 0          |   0.0 |  0.00
Comm    | 0.10514    | 4.4133     | 17.33      | 355.0 | 12.04
Output  | 0.063154   | 1.8942     | 3.7229     | 132.9 |  5.17
Modify  | 0.00049139 | 0.0016763  | 0.0030307  |   2.9 |  0.00
Other   |            | 16.51      |            |       | 45.04

Nlocal:           24.5 ave          69 max           0 min
Histogram: 2 0 0 0 1 0 0 0 0 1
Nghost:          654.5 ave         726 max         502 min
Histogram: 1 0 0 0 0 0 0 1 0 2
Neighs:              0 ave           0 max           0 min
Histogram: 4 0 0 0 0 0 0 0 0 0
FullNghs:         3604 ave       10562 max           0 min
Histogram: 2 0 0 1 0 0 0 0 0 1

Total # of neighbors = 14416
Ave neighs/atom = 147.10204
Neighbor list builds = 0
Dangerous builds = 0
if '${NO_height} > 8.0' then quit
Generated 0 of 3 mixed pair_coeff terms from geometric mixing rule
Per MPI rank memory allocation (min/avg/max) = 3.242 | 4.076 | 4.363 Mbytes
     Temp         Step         PotEng         KinEng         TotEng    
 260.59209           5500  -907.3792       3.2673646     -904.11183    
 262.3619            5510  -907.4014       3.289555      -904.11184    
 262.35403           5520  -907.4013       3.2894562     -904.11184    
 260.32874           5530  -907.3759       3.2640627     -904.11184    
 256.74215           5540  -907.33092      3.2190932     -904.11183    
 252.38277           5550  -907.27626      3.1644343     -904.11182    
 248.0761            5560  -907.22225      3.1104362     -904.11182    
 244.56683           5570  -907.17825      3.0664361     -904.11181    
 242.44222           5580  -907.15161      3.0397973     -904.11181    
 241.99239           5590  -907.14597      3.0341572     -904.11181    
 243.07888           5600  -907.1596       3.0477799     -904.11182    
 245.10716           5610  -907.18503      3.0732109     -904.11182    
 247.25114           5620  -907.21192      3.1000927     -904.11183    
 248.95419           5630  -907.23327      3.1214459     -904.11183    
 250.36694           5640  -907.25098      3.1391593     -904.11182    
 252.2327            5650  -907.27437      3.1625527     -904.11182    
 255.12386           5660  -907.31062      3.1988027     -904.11182    
 258.65066           5670  -907.35486      3.2430225     -904.11183    
 261.46201           5680  -907.39012      3.2782719     -904.11184    
 262.11256           5690  -907.39828      3.2864286     -904.11185    
 259.99934           5700  -907.37178      3.2599326     -904.11185    
 255.6049            5710  -907.31667      3.2048341     -904.11184    
 250.09445           5720  -907.24757      3.1357427     -904.11183    
 244.81356           5730  -907.18135      3.0695297     -904.11182    
 240.97752           5740  -907.13324      3.0214326     -904.11181    
 239.47076           5750  -907.11435      3.0025405     -904.11181    
 240.62858           5760  -907.12887      3.0170575     -904.11181    
 244.04025           5770  -907.17165      3.0598337     -904.11182    
 248.53939           5780  -907.22807      3.116245      -904.11183    
 252.52414           5790  -907.27805      3.1662068     -904.11184    
 254.6224            5800  -907.30436      3.1925153     -904.11184    
 254.46185           5810  -907.30234      3.1905022     -904.11184    
 253.04068           5820  -907.2845       3.1726833     -904.11182    
 252.24195           5830  -907.27448      3.1626686     -904.11181    
 253.59712           5840  -907.29147      3.1796601     -904.11181    
 257.14161           5850  -907.33592      3.2241017     -904.11182    
 261.28786           5860  -907.38793      3.2760883     -904.11184    
 263.78072           5870  -907.4192       3.3073444     -904.11185    
 262.87344           5880  -907.40783      3.2959687     -904.11186    
 257.92597           5890  -907.34579      3.2339362     -904.11185    
 249.41103           5900  -907.23902      3.1271739     -904.11184    
 238.70054           5910  -907.10471      2.9928832     -904.11183    
 227.816             5920  -906.96822      2.8564103     -904.11181    
 219.0676            5930  -906.85851      2.7467209     -904.11179    
 214.43115           5940  -906.80037      2.688588      -904.11178    
 214.78691           5950  -906.80484      2.6930486     -904.11179    
 219.45127           5960  -906.86334      2.7515314     -904.11181    
 226.36342           5970  -906.95003      2.8381976     -904.11183    
 232.9809            5980  -907.03301      2.9211691     -904.11184    
 237.53906           5990  -907.09017      2.9783203     -904.11185    
 239.97134           6000  -907.12065      3.0088168     -904.11183    
Loop time of 40.8795 on 4 procs for 500 steps with 98 atoms

Performance: 0.106 ns/day, 227.108 hours/ns, 12.231 timesteps/s, 1.199 katom-step/s
98.7% CPU use with 4 MPI tasks x 1 OpenMP threads

MPI task timing breakdown:
Section |  min time  |  avg time  |  max time  |%varavg| %total
---------------------------------------------------------------
Pair    | 0.025439   | 13.777     | 40.592     | 446.3 | 33.70
Neigh   | 0          | 0          | 0          |   0.0 |  0.00
Comm    | 0.030381   | 6.5808     | 26.229     | 442.2 | 16.10
Output  | 0.13424    | 2.1828     | 4.2235     | 138.1 |  5.34
Modify  | 0.00050513 | 0.0015778  | 0.0027827  |   2.7 |  0.00
Other   |            | 18.34      |            |       | 44.86

Nlocal:           24.5 ave          79 max           0 min
Histogram: 2 0 1 0 0 0 0 0 0 1
Nghost:          654.5 ave         726 max         502 min
Histogram: 1 0 0 0 0 0 0 1 0 2
Neighs:              0 ave           0 max           0 min
Histogram: 4 0 0 0 0 0 0 0 0 0
FullNghs:         3621 ave       11996 max           0 min
Histogram: 2 0 1 0 0 0 0 0 0 1

Total # of neighbors = 14484
Ave neighs/atom = 147.79592
Neighbor list builds = 0
Dangerous builds = 0
if '${NO_height} > 8.0' then quit
Generated 0 of 3 mixed pair_coeff terms from geometric mixing rule
Per MPI rank memory allocation (min/avg/max) = 3.243 | 4.077 | 4.364 Mbytes
     Temp         Step         PotEng         KinEng         TotEng    
 239.97134           6000  -907.12065      3.0088168     -904.11183    
 241.76013           6010  -907.14306      3.0312451     -904.11182    
 244.66671           6020  -907.1795       3.0676884     -904.11181    
 249.30234           6030  -907.23763      3.1258111     -904.11182    
 254.71879           6040  -907.30556      3.1937238     -904.11184    
 259.24942           6050  -907.36238      3.2505299     -904.11185    
 261.69616           6060  -907.39305      3.2812077     -904.11185    
 261.881             6070  -907.39537      3.2835253     -904.11184    
 260.44864           6080  -907.3774       3.265566      -904.11183    
 258.38              6090  -907.35145      3.2396289     -904.11182    
 256.55665           6100  -907.32859      3.2167674     -904.11182    
 255.45484           6110  -907.31477      3.2029525     -904.11182    
 254.98494           6120  -907.30889      3.1970609     -904.11183    
 254.52061           6130  -907.30307      3.1912389     -904.11183    
 253.14079           6140  -907.28578      3.1739385     -904.11184    
 250.05563           6150  -907.2471       3.1352561     -904.11184    
 245.1179            6160  -907.18518      3.0733456     -904.11183    
 239.20919           6170  -907.11108      2.9992608     -904.11182    
 234.19584           6180  -907.0482       2.9364023     -904.1118     
 232.21839           6190  -907.0234       2.9116086     -904.11179    
 234.51656           6200  -907.05222      2.9404235     -904.1118     
 240.62857           6210  -907.12887      3.0170573     -904.11181    
 248.73633           6220  -907.23054      3.1187143     -904.11183    
 256.88901           6230  -907.33277      3.2209346     -904.11184    
 263.94154           6240  -907.4212       3.3093608     -904.11184    
 269.5136            6250  -907.49106      3.3792247     -904.11184    
 273.45964           6260  -907.54054      3.428701      -904.11184    
 275.51695           6270  -907.56634      3.4544961     -904.11184    
 275.32397           6280  -907.56392      3.4520764     -904.11184    
 272.74119           6290  -907.53153      3.4196928     -904.11184    
 268.17551           6300  -907.47428      3.3624473     -904.11183    
 262.47892           6310  -907.40285      3.2910221     -904.11183    
 256.42044           6320  -907.32688      3.2150595     -904.11182    
 250.28068           6330  -907.2499       3.1380777     -904.11183    
 243.9986            6340  -907.17114      3.0593115     -904.11183    
 237.76547           6350  -907.09298      2.9811592     -904.11182    
 232.55564           6360  -907.02764      2.915837      -904.11181    
 229.96701           6370  -906.99518      2.8833802     -904.1118     
 231.2176            6380  -907.01086      2.8990604     -904.1118     
 236.08111           6390  -907.07185      2.9600402     -904.11181    
 242.81521           6400  -907.1563       3.044474      -904.11183    
 249.20526           6410  -907.23644      3.1245938     -904.11184    
 253.82105           6420  -907.29431      3.1824677     -904.11184    
 256.6031            6430  -907.32918      3.2173498     -904.11183    
 258.62906           6440  -907.35457      3.2427517     -904.11182    
 261.41536           6450  -907.3895       3.2776869     -904.11181    
 266.1508            6460  -907.44887      3.337061      -904.11181    
 273.10555           6470  -907.53608      3.4242613     -904.11182    
 281.32783           6480  -907.63919      3.5273542     -904.11183    
 288.71241           6490  -907.7318       3.6199437     -904.11185    
 292.53744           6500  -907.77978      3.6679029     -904.11187    
Loop time of 43.7461 on 4 procs for 500 steps with 98 atoms

Performance: 0.099 ns/day, 243.034 hours/ns, 11.430 timesteps/s, 1.120 katom-step/s
98.9% CPU use with 4 MPI tasks x 1 OpenMP threads

MPI task timing breakdown:
Section |  min time  |  avg time  |  max time  |%varavg| %total
---------------------------------------------------------------
Pair    | 0.026265   | 13.482     | 43.584     | 486.9 | 30.82
Neigh   | 0          | 0          | 0          |   0.0 |  0.00
Comm    | 0.041036   | 8.3688     | 33.349     | 498.5 | 19.13
Output  | 0.074997   | 2.2716     | 4.468      | 145.7 |  5.19
Modify  | 0.00049605 | 0.0015957  | 0.002961   |   2.8 |  0.00
Other   |            | 19.62      |            |       | 44.85

Nlocal:           24.5 ave          87 max           0 min
Histogram: 2 1 0 0 0 0 0 0 0 1
Nghost:          659.5 ave         738 max         507 min
Histogram: 1 0 0 0 0 0 1 0 0 2
Neighs:              0 ave           0 max           0 min
Histogram: 4 0 0 0 0 0 0 0 0 0
FullNghs:       3624.5 ave       13130 max           0 min
Histogram: 2 1 0 0 0 0 0 0 0 1

Total # of neighbors = 14498
Ave neighs/atom = 147.93878
Neighbor list builds = 0
Dangerous builds = 0
if '${NO_height} > 8.0' then quit
Generated 0 of 3 mixed pair_coeff terms from geometric mixing rule
Per MPI rank memory allocation (min/avg/max) = 3.245 | 4.077 | 4.364 Mbytes
     Temp         Step         PotEng         KinEng         TotEng    
 292.53744           6500  -907.77978      3.6679029     -904.11187    
 290.44345           6510  -907.75353      3.641648      -904.11188    
 281.56323           6520  -907.64218      3.5303056     -904.11187    
 267.32222           6530  -907.46359      3.3517486     -904.11184    
 251.36395           6540  -907.26347      3.15166       -904.11181    
 238.2643            6550  -907.09919      2.9874135     -904.11178    
 231.44933           6560  -907.01374      2.9019659     -904.11177    
 231.59363           6570  -907.01557      2.9037751     -904.11179    
 236.6453            6580  -907.07893      2.9671141     -904.11182    
 243.32473           6590  -907.1627       3.0508625     -904.11184    
 248.83813           6600  -907.23184      3.1199907     -904.11185    
 251.72814           6610  -907.26808      3.1562264     -904.11185    
 251.80446           6620  -907.26903      3.1571833     -904.11184    
 249.69094           6630  -907.24252      3.1306834     -904.11184    
 246.39594           6640  -907.2012       3.0893699     -904.11183    
 243.07332           6650  -907.15953      3.0477101     -904.11182    
 240.81609           6660  -907.13122      3.0194085     -904.11181    
 240.2867            6670  -907.12458      3.0127709     -904.11181    
 241.38994           6680  -907.13842      3.0266036     -904.11182    
 243.25412           6690  -907.16181      3.0499771     -904.11183    
 244.6209            6700  -907.17895      3.0671141     -904.11184    
 244.58421           6710  -907.17849      3.0666541     -904.11184    
 243.24691           6720  -907.16172      3.0498866     -904.11183    
 241.60815           6730  -907.14116      3.0293395     -904.11182    
 240.60476           6740  -907.12858      3.0167588     -904.11182    
 240.24125           6750  -907.12403      3.0122011     -904.11183    
 239.69043           6760  -907.11713      3.0052947     -904.11183    
 238.20044           6770  -907.09845      2.9866129     -904.11183    
 235.87714           6780  -907.06931      2.9574827     -904.11182    
 233.66978           6790  -907.04162      2.9298064     -904.11181    
 232.78904           6800  -907.03057      2.9187635     -904.11181    
 234.18109           6810  -907.04802      2.9362173     -904.1118     
 238.28068           6820  -907.09942      2.9876189     -904.1118     
 244.89088           6830  -907.18231      3.0704992     -904.11181    
 253.11493           6840  -907.28544      3.1736142     -904.11182    
 261.41983           6850  -907.38958      3.277743      -904.11184    
 267.89054           6860  -907.47073      3.3588743     -904.11185    
 270.70855           6870  -907.50607      3.3942071     -904.11186    
 268.86958           6880  -907.48301      3.3711498     -904.11186    
 262.89035           6890  -907.40803      3.2961808     -904.11184    
 254.88436           6900  -907.30762      3.1957997     -904.11182    
 247.54674           6910  -907.21561      3.103799      -904.11181    
 242.5135            6920  -907.1525       3.0406911     -904.11181    
 239.38272           6930  -907.11326      3.0014366     -904.11183    
 236.31248           6940  -907.07478      2.9629411     -904.11184    
 231.72501           6950  -907.01726      2.9054224     -904.11184    
 225.65531           6960  -906.94114      2.8293191     -904.11183    
 219.7932            6970  -906.86762      2.7558186     -904.11181    
 216.49012           6980  -906.82619      2.7144038     -904.11179    
 217.52616           6990  -906.83918      2.7273939     -904.11179    
 223.32939           7000  -906.91195      2.8001562     -904.11179    
Loop time of 44.3586 on 4 procs for 500 steps with 98 atoms

Performance: 0.097 ns/day, 246.437 hours/ns, 11.272 timesteps/s, 1.105 katom-step/s
98.9% CPU use with 4 MPI tasks x 1 OpenMP threads

MPI task timing breakdown:
Section |  min time  |  avg time  |  max time  |%varavg| %total
---------------------------------------------------------------
Pair    | 0.024139   | 13.337     | 44.248     | 499.0 | 30.07
Neigh   | 0          | 0          | 0          |   0.0 |  0.00
Comm    | 0.017332   | 8.8243     | 35.237     | 513.3 | 19.89
Output  | 0.067034   | 2.244      | 4.4201     | 145.3 |  5.06
[...]
 248.86858          25040  -907.23218      3.1203725     -904.1118     
 252.11019          25050  -907.27283      3.1610165     -904.11181    
 257.21508          25060  -907.33684      3.2250229     -904.11182    
 262.89098          25070  -907.40802      3.2961887     -904.11183    
 267.60223          25080  -907.4671       3.3552594     -904.11184    
 270.09951          25090  -907.49842      3.3865709     -904.11185    
 269.93328          25100  -907.49633      3.3844867     -904.11184    
 267.58363          25110  -907.46686      3.3550261     -904.11184    
 263.93621          25120  -907.42113      3.309294      -904.11183    
 259.44191          25130  -907.36478      3.2529434     -904.11184    
 253.79559          25140  -907.29399      3.1821485     -904.11184    
 246.48861          25150  -907.20237      3.0905318     -904.11184    
 237.63012          25160  -907.09129      2.979462      -904.11183    
 228.26565          25170  -906.97387      2.8620481     -904.11182    
 220.10774          25180  -906.87157      2.7597623     -904.1118     
 215.0439           25190  -906.80806      2.6962707     -904.11179    
 214.61401          25200  -906.80266      2.6908807     -904.11178    
 219.50372          25210  -906.86398      2.752189      -904.11179    
 229.18795          25220  -906.98541      2.8736122     -904.1118     
 241.82804          25230  -907.14392      3.0320966     -904.11183    
 254.48247          25240  -907.30261      3.1907608     -904.11185    
 263.75179          25250  -907.41886      3.3069817     -904.11188    
 266.86881          25260  -907.45795      3.3460637     -904.11189    
 262.87664          25270  -907.40788      3.2960088     -904.11187    
 253.29721          25280  -907.28774      3.1758997     -904.11184    
 241.75294          25290  -907.14297      3.0311549     -904.11181    
 232.41207          25300  -907.02582      2.9140369     -904.11179    
 228.0207           25310  -906.97076      2.8589769     -904.11179    
 228.83348          25320  -906.98097      2.8691677     -904.1118     
 233.04674          25330  -907.03381      2.9219945     -904.11182    
 238.11622          25340  -907.09739      2.985557      -904.11184    
 241.94592          25350  -907.14542      3.0335746     -904.11184    
 243.46383          25360  -907.16445      3.0526065     -904.11184    
 242.66382          25370  -907.15441      3.0425758     -904.11184    
 240.34144          25380  -907.12528      3.0134572     -904.11183    
 237.70086          25390  -907.09216      2.980349      -904.11182    
 235.94336          25400  -907.07012      2.958313      -904.11181    
 235.88395          25410  -907.06938      2.9575682     -904.11181    
 237.6641           25420  -907.0917       2.9798882     -904.11181    
 240.73139          25430  -907.13017      3.0183465     -904.11182    
 244.21533          25440  -907.17386      3.062029      -904.11183    
 247.55971          25450  -907.21579      3.1039616     -904.11183    
 250.95917          25460  -907.2584       3.1465848     -904.11182    
 255.03292          25470  -907.30948      3.1976624     -904.11182    
 259.71831          25480  -907.36824      3.256409      -904.11183    
 263.42578          25490  -907.41475      3.302894      -904.11186    
 263.54133          25500  -907.41622      3.3043429     -904.11187    
Loop time of 34.7694 on 4 procs for 500 steps with 98 atoms

Performance: 0.124 ns/day, 193.163 hours/ns, 14.380 timesteps/s, 1.409 katom-step/s
98.3% CPU use with 4 MPI tasks x 1 OpenMP threads

MPI task timing breakdown:
Section |  min time  |  avg time  |  max time  |%varavg| %total
---------------------------------------------------------------
Pair    | 0.032769   | 14.188     | 34.26      | 358.4 | 40.81
Neigh   | 0          | 0          | 0          |   0.0 |  0.00
Comm    | 0.34477    | 12.736     | 30.606     | 332.4 | 36.63
Output  | 0.027852   | 0.80934    | 3.097      | 146.8 |  2.33
Modify  | 0.00069385 | 0.0021533  | 0.0028932  |   1.9 |  0.01
Other   |            | 7.034      |            |       | 20.23

Nlocal:           24.5 ave          64 max           0 min
Histogram: 2 0 0 0 0 1 0 0 0 1
Nghost:         656.75 ave         744 max         500 min
Histogram: 1 0 0 0 0 0 0 1 1 1
Neighs:              0 ave           0 max           0 min
Histogram: 4 0 0 0 0 0 0 0 0 0
FullNghs:       3489.5 ave        9705 max           0 min
Histogram: 2 0 0 0 1 0 0 0 0 1

Total # of neighbors = 13958
Ave neighs/atom = 142.42857
Neighbor list builds = 0
Dangerous builds = 0
if '${NO_height} > 8.0' then quit
Generated 0 of 3 mixed pair_coeff terms from geometric mixing rule
Per MPI rank memory allocation (min/avg/max) = 3.245 | 4.078 | 4.365 Mbytes
     Temp         Step         PotEng         KinEng         TotEng    
 263.54133          25500  -907.41622      3.3043429     -904.11187    
 258.09405          25510  -907.34791      3.2360436     -904.11187    
 247.31451          25520  -907.21274      3.1008873     -904.11185    
 233.915            25530  -907.0447       2.9328811     -904.11182    
 221.94332          25540  -906.89456      2.7827774     -904.11179    
 214.96292          25550  -906.80703      2.6952553     -904.11177    
 214.58782          25560  -906.80233      2.6905524     -904.11178    
 220.09679          25570  -906.87142      2.7596251     -904.1118     
 229.10471          25580  -906.98439      2.8725685     -904.11182    
 238.63226          25590  -907.10387      2.9920271     -904.11184    
 245.97797          25600  -907.19599      3.0841294     -904.11186    
 249.29539          25610  -907.23759      3.125724      -904.11186    
 248.03517          25620  -907.22178      3.109923      -904.11185    
 243.26849          25630  -907.16199      3.0501572     -904.11183    
 237.60198          25640  -907.09092      2.9791092     -904.11181    
 234.31281          25650  -907.04966      2.9378688     -904.11179    
 235.84404          25660  -907.06885      2.9570678     -904.11178    
 242.57049          25670  -907.1532       3.0414056     -904.1118     
 252.74074          25680  -907.28074      3.1689226     -904.11182    
 263.52661          25690  -907.416        3.3041583     -904.11184    
 272.25074          25700  -907.5254       3.4135436     -904.11186    
 277.02911          25710  -907.58532      3.4734558     -904.11186    
 276.86626          25720  -907.58328      3.471414      -904.11187    
 271.63976          25730  -907.51774      3.4058829     -904.11186    
 262.1852           25740  -907.39918      3.2873395     -904.11185    
 250.36481          25750  -907.25096      3.1391326     -904.11182    
 238.84508          25760  -907.1065       2.9946956     -904.1118     
 230.364            25770  -907.00015      2.8883577     -904.11179    
 226.67155          25780  -906.95385      2.842061      -904.11179    
 227.82894          25790  -906.96837      2.8565725     -904.1118     
 232.46157          25800  -907.02647      2.9146576     -904.11181    
 238.86909          25810  -907.10682      2.9949965     -904.11182    
 246.18849          25820  -907.19859      3.0867689     -904.11182    
 254.59502          25830  -907.30399      3.192172      -904.11182    
 264.31299          25840  -907.42584      3.3140181     -904.11182    
 274.46895          25850  -907.5532       3.441356      -904.11184    
 282.99233          25860  -907.66008      3.5482241     -904.11186    
 287.6174           25870  -907.71808      3.6062142     -904.11187    
 287.01768          25880  -907.71056      3.5986949     -904.11187    
 281.28003          25890  -907.63861      3.5267549     -904.11186    
 271.7236           25900  -907.51877      3.4069342     -904.11184    
 260.41686          25910  -907.37699      3.2651675     -904.11182    
 249.59606          25920  -907.2413       3.1294938     -904.11181    
 241.06686          25930  -907.13435      3.0225527     -904.1118     
 235.73781          25940  -907.06753      2.9557358     -904.1118     
 233.44937          25950  -907.03885      2.9270428     -904.11181    
 233.13612          25960  -907.03494      2.9231153     -904.11182    
 233.32213          25970  -907.03728      2.9254475     -904.11183    
 232.90249          25980  -907.03202      2.920186      -904.11183    
 231.90428          25990  -907.01949      2.9076701     -904.11182    
 231.69651          26000  -907.01687      2.9050651     -904.1118     
Loop time of 35.6329 on 4 procs for 500 steps with 98 atoms

Performance: 0.121 ns/day, 197.960 hours/ns, 14.032 timesteps/s, 1.375 katom-step/s
98.4% CPU use with 4 MPI tasks x 1 OpenMP threads

MPI task timing breakdown:
Section |  min time  |  avg time  |  max time  |%varavg| %total
---------------------------------------------------------------
Pair    | 0.034739   | 14.125     | 35.248     | 366.0 | 39.64
Neigh   | 0          | 0          | 0          |   0.0 |  0.00
Comm    | 0.27659    | 13.518     | 31.448     | 336.1 | 37.94
Output  | 0.027295   | 0.81441    | 3.1717     | 150.8 |  2.29
Modify  | 0.0016924  | 0.0024026  | 0.0028479  |   0.9 |  0.01
Other   |            | 7.172      |            |       | 20.13

Nlocal:           24.5 ave          67 max           0 min
Histogram: 2 0 0 0 1 0 0 0 0 1
Nghost:         656.75 ave         744 max         500 min
Histogram: 1 0 0 0 0 0 1 0 1 1
Neighs:              0 ave           0 max           0 min
Histogram: 4 0 0 0 0 0 0 0 0 0
FullNghs:       3518.5 ave       10186 max           0 min
Histogram: 2 0 0 1 0 0 0 0 0 1

Total # of neighbors = 14074
Ave neighs/atom = 143.61224
Neighbor list builds = 0
Dangerous builds = 0
if '${NO_height} > 8.0' then quit
Generated 0 of 3 mixed pair_coeff terms from geometric mixing rule
Per MPI rank memory allocation (min/avg/max) = 3.245 | 4.078 | 4.365 Mbytes
     Temp         Step         PotEng         KinEng         TotEng    
 231.69651          26000  -907.01687      2.9050651     -904.1118     
 234.21065          26010  -907.04838      2.9365879     -904.1118     
 240.39967          26020  -907.12599      3.0141874     -904.11181    
 249.16821          26030  -907.23596      3.1241293     -904.11183    
 257.86875          26040  -907.34507      3.2332188     -904.11185    
 263.97517          26050  -907.42164      3.3097825     -904.11186    
 266.46643          26060  -907.45287      3.3410185     -904.11185    
 265.94129          26070  -907.44627      3.3344341     -904.11184    
 263.82619          26080  -907.41974      3.3079146     -904.11183    
 261.49768          26090  -907.39054      3.2787191     -904.11182    
 259.64807          26100  -907.36735      3.2555283     -904.11182    
 258.09901          26110  -907.34793      3.2361059     -904.11183    
 256.11539          26120  -907.32307      3.2112347     -904.11183    
 252.86159          26130  -907.28228      3.1704378     -904.11184    
 247.75185          26140  -907.21821      3.1063707     -904.11184    
 240.73389          26150  -907.13021      3.0183778     -904.11184    
 232.56477          26160  -907.02777      2.9159516     -904.11182    
 224.98078          26170  -906.93266      2.8208617     -904.1118     
 220.33736          26180  -906.87443      2.7626414     -904.11179    
 220.45241          26190  -906.87587      2.764084      -904.11179    
 225.27045          26200  -906.9363       2.8244936     -904.11181    
 232.55922          26210  -907.02771      2.9158819     -904.11183    
 239.13533          26220  -907.11019      2.9983348     -904.11185    
 242.67896          26230  -907.15462      3.0427656     -904.11185    
 242.74546          26240  -907.15544      3.0435994     -904.11184    
 240.52288          26250  -907.12756      3.0157322     -904.11183    
 237.8956           26260  -907.0946       2.9827908     -904.11181    
 236.53029          26270  -907.07748      2.9656722     -904.11181    
 237.34406          26280  -907.08768      2.9758754     -904.11181    
 240.37206          26290  -907.12565      3.0138412     -904.11181    
 244.85482          26300  -907.18187      3.0700471     -904.11182    
 249.38109          26310  -907.23864      3.1267985     -904.11184    
 252.11708          26320  -907.27296      3.1611029     -904.11185    
 251.28737          26330  -907.26256      3.1506998     -904.11186    
 245.97119          26340  -907.1959       3.0840444     -904.11186    
 236.90866          26350  -907.08225      2.9704163     -904.11184    
 226.62109          26360  -906.95324      2.8414283     -904.11181    
 218.35027          26370  -906.84952      2.7377269     -904.11179    
 214.35335          26380  -906.7994       2.6876125     -904.11179    
 214.87233          26390  -906.80592      2.6941195     -904.1118     
 218.49667          26400  -906.85138      2.7395624     -904.11182    
 223.3536           26410  -906.91229      2.8004597     -904.11183    
 228.09875          26420  -906.97178      2.8599555     -904.11183    
 232.2551           26430  -907.0239       2.9120688     -904.11183    
 236.0614           26440  -907.07161      2.9597931     -904.11182    
 240.1206           26450  -907.1225       3.0106883     -904.11182    
 245.03669          26460  -907.18414      3.0723273     -904.11181    
 251.08826          26470  -907.26002      3.1482034     -904.11182    
 257.92601          26480  -907.34576      3.2339366     -904.11183    
 264.37357          26490  -907.42662      3.3147777     -904.11184    
 268.5422           26500  -907.4789       3.3670449     -904.11186    
Loop time of 37.3591 on 4 procs for 500 steps with 98 atoms

Performance: 0.116 ns/day, 207.551 hours/ns, 13.384 timesteps/s, 1.312 katom-step/s
98.4% CPU use with 4 MPI tasks x 1 OpenMP threads

MPI task timing breakdown:
Section |  min time  |  avg time  |  max time  |%varavg| %total
---------------------------------------------------------------
Pair    | 0.04787    | 13.935     | 36.911     | 384.0 | 37.30
Neigh   | 0          | 0          | 0          |   0.0 |  0.00
Comm    | 0.27546    | 14.95      | 33.183     | 347.8 | 40.02
Output  | 0.080837   | 0.90618    | 3.3776     | 149.9 |  2.43
Modify  | 0.0018415  | 0.0023752  | 0.00278    |   0.7 |  0.01
Other   |            | 7.565      |            |       | 20.25

Nlocal:           24.5 ave          72 max           0 min
Histogram: 2 0 0 1 0 0 0 0 0 1
Nghost:         656.75 ave         744 max         500 min
Histogram: 1 0 0 0 0 0 1 0 0 2
Neighs:              0 ave           0 max           0 min
Histogram: 4 0 0 0 0 0 0 0 0 0
FullNghs:       3549.5 ave       10958 max           0 min
Histogram: 2 0 1 0 0 0 0 0 0 1

Total # of neighbors = 14198
Ave neighs/atom = 144.87755
Neighbor list builds = 0
Dangerous builds = 0
if '${NO_height} > 8.0' then quit
Generated 0 of 3 mixed pair_coeff terms from geometric mixing rule
Per MPI rank memory allocation (min/avg/max) = 3.245 | 4.078 | 4.365 Mbytes
     Temp         Step         PotEng         KinEng         TotEng    
 268.5422           26500  -907.4789       3.3670449     -904.11186    
 268.4484           26510  -907.47774      3.3658689     -904.11187    
 263.0342           26520  -907.40985      3.2979844     -904.11186    
 253.043            26530  -907.28456      3.1727123     -904.11184    
 240.99038          26540  -907.13341      3.0215938     -904.11182    
 229.96464          26550  -906.99515      2.8833504     -904.1118     
 222.04623          26560  -906.89587      2.7840676     -904.1118     
 217.6139           26570  -906.8403       2.7284941     -904.1118     
 215.97771          26580  -906.81979      2.7079791     -904.11181    
 216.53649          26590  -906.82679      2.7149851     -904.11181    
 219.3771           26600  -906.8624       2.7506014     -904.1118     
 224.99222          26610  -906.9328       2.8210051     -904.1118     
 233.55885          26620  -907.04022      2.9284156     -904.1118     
 244.37048          26630  -907.17579      3.0639743     -904.11182    
 255.73441          26640  -907.3183       3.2064579     -904.11184    
 265.33828          26650  -907.43873      3.3268735     -904.11186    
 270.92203          26660  -907.50875      3.3968839     -904.11187    
 271.01141          26670  -907.50987      3.3980044     -904.11187    
 265.47981          26680  -907.44051      3.328648      -904.11186    
 255.81192          26690  -907.31927      3.2074297     -904.11184    
 244.99907          26700  -907.18366      3.0718557     -904.11181    
 236.86667          26710  -907.08167      2.9698897     -904.11178    
 234.65421          26720  -907.05392      2.9421494     -904.11177    
 239.30848          26730  -907.11229      3.0005057     -904.11179    
 248.66641          26740  -907.22966      3.1178377     -904.11182    
 258.37175          26750  -907.35139      3.2395255     -904.11186    
 264.05975          26760  -907.42272      3.310843      -904.11188    
 263.39838          26770  -907.41442      3.3025506     -904.11187    
 256.88342          26780  -907.33271      3.2208644     -904.11185    
 247.28774          26790  -907.21237      3.1005516     -904.11182    
 238.34682          26800  -907.10024      2.9884482     -904.11179    
 233.37306          26810  -907.03786      2.9260861     -904.11178    
 234.24497          26820  -907.0488       2.9370183     -904.11178    
 240.93526          26830  -907.13269      3.0209027     -904.11179    
 251.62356          26840  -907.26673      3.1549151     -904.11182    
 263.33693          26850  -907.41362      3.30178       -904.11184    
 272.90237          26860  -907.53357      3.4217138     -904.11186    
 277.94613          26870  -907.59682      3.4849536     -904.11187    
 277.68057          26880  -907.59348      3.481624      -904.11186    
 273.08054          26890  -907.53579      3.4239477     -904.11184    
 266.14803          26900  -907.44886      3.3370263     -904.11183    
 258.66496          26910  -907.35503      3.2432018     -904.11182    
 251.38461          26920  -907.26374      3.1519191     -904.11183    
 244.2447           26930  -907.17422      3.0623972     -904.11183    
 237.21729          26940  -907.08611      2.9742859     -904.11182    
 230.85266          26950  -907.0063       2.8944847     -904.11181    
 226.04125          26960  -906.94597      2.8341581     -904.11181    
 223.39412          26970  -906.91278      2.8009678     -904.11181    
 222.87409          26980  -906.90626      2.7944475     -904.11181    
 223.87757          26990  -906.91885      2.8070293     -904.11182    
 225.61456          27000  -906.94063      2.8288082     -904.11182    
Loop time of 38.2246 on 4 procs for 500 steps with 98 atoms

Performance: 0.113 ns/day, 212.359 hours/ns, 13.081 timesteps/s, 1.282 katom-step/s
98.7% CPU use with 4 MPI tasks x 1 OpenMP threads

MPI task timing breakdown:
Section |  min time  |  avg time  |  max time  |%varavg| %total
---------------------------------------------------------------
Pair    | 0.033776   | 13.88      | 38.075     | 397.1 | 36.31
Neigh   | 0          | 0          | 0          |   0.0 |  0.00
Comm    | 0.073644   | 15.742     | 34.182     | 357.2 | 41.18
Output  | 0.053468   | 0.91714    | 3.5006     | 155.7 |  2.40
Modify  | 0.0022308  | 0.0025344  | 0.0027824  |   0.4 |  0.01
Other   |            | 7.682      |            |       | 20.10

Nlocal:           24.5 ave          75 max           0 min
Histogram: 2 0 1 0 0 0 0 0 0 1
Nghost:         656.75 ave         744 max         500 min
Histogram: 1 0 0 0 0 0 1 0 0 2
Neighs:              0 ave           0 max           0 min
Histogram: 4 0 0 0 0 0 0 0 0 0
FullNghs:         3554 ave       11378 max           0 min
Histogram: 2 0 1 0 0 0 0 0 0 1

Total # of neighbors = 14216
Ave neighs/atom = 145.06122
Neighbor list builds = 0
Dangerous builds = 0
if '${NO_height} > 8.0' then quit
quit
